ITEM: TIMESTEP
0
ITEM: NUMBER OF ATOMS
180
ITEM: BOX BOUNDS pp pp pp
-2.9849823217130805e+01 2.9849823217130805e+01
-2.9849823217130805e+01 2.9849823217130805e+01
-2.9849823217130805e+01 2.9849823217130805e+01
ITEM: ATOMS id type x y z vx vy vz id
48 3 -6.35136 -18.4547 -23.1872 -0.830837 -5.89975 9.90338 48
45 2 -6.30678 -17.9452 -24.439 2.54942 1.9298 2.71167 45
46 3 -6.32394 -18.7534 -25.4614 -3.08843 -7.37953 -8.34525 46
26 1 -4.85546 -22.9944 -24.543 0.545698 3.6434 3.36686 26
29 1 -7.45813 -12.3924 -29.238 -3.038 2.836 -1.05011 29
47 3 -6.12921 -16.6963 -24.6605 1.92816 -1.90193 2.55872 47
144 3 -5.55262 -13.6046 -28.3913 -4.8885 2.52515 1.48828 144
6 1 -3.76702 -15.6256 -24.597 -1.73306 5.48951 1.26771 6
141 2 -4.72175 -13.6097 -27.3883 -1.42783 3.51568 3.75048 141
142 3 -4.87861 -14.4988 -26.4408 3.3231 -4.27653 -1.06088 142
143 3 -3.7898 -12.7885 -27.2964 2.48066 1.2102 -2.43715 143
13 1 -1.17358 -6.08733 -28.1236 4.54405 0.393548 -1.70681 13
128 3 -2.7844 -1.48718 -25.3395 -0.272219 -7.05992 3.51983 128
96 3 -0.273914 -5.58565 -25.974 2.58504 -0.608191 1.39943 96
83 3 -0.437376 -3.82322 -28.2606 -3.82633 1.10004 4.44727 83
154 3 -5.31669 -3.18172 -29.4496 0.232334 -5.5633 -5.06843 154
125 2 -3.35445 -2.5 -24.7789 -5.3556 -2.30802 -0.297048 125
126 3 -4.48827 -2.89025 -25.1936 -1.86294 -1.09051 0.127162 126
15 1 -1.28122 -1.72609 -27.2832 1.11868 -1.18487 -2.9681 15
127 3 -2.71975 -3.19815 -23.8945 0.601631 -5.97967 -4.25618 127
165 2 -6.03236 -24.4026 -15.1649 1.4892 1.58606 -0.315258 165
166 3 -6.13365 -23.7747 -16.3128 0.94021 0.979483 -1.30356 166
24 1 -7.65303 -22.9353 -17.8258 1.82859 -2.00378 0.730713 24
136 3 -6.0327 -23.3471 -19.5693 -0.90428 3.28106 4.90584 136
176 3 -1.33428 -21.368 -16.4766 -9.70355 1.71328 2.73011 176
33 1 -2.80642 -21.8229 -18.2865 -2.1769 -0.217356 -3.96645 33
177 2 -4.18023 -18.5312 -15.3449 2.83495 5.44628 -0.174817 177
179 3 -5.21688 -19.202 -15.3995 3.8392 4.64859 1.4326 179
180 3 -3.52539 -18.2119 -16.41 -1.25813 0.92738 -1.70161 180
133 2 -5.24383 -22.6301 -20.3199 -2.63439 -0.692735 2.11294 133
134 3 -5.72062 -21.7544 -21.1235 0.7612 5.99927 1.28641 134
135 3 -3.98764 -22.7168 -20.2068 -4.25493 -2.11029 0.37432 135
173 2 -1.08913 -22.1745 -15.5544 1.91834 0.278113 -4.8121 173
175 3 -1.38446 -23.4554 -15.6683 3.25035 1.99896 0.004215 175
34 1 -2.80148 -4.5717 -22.1778 -2.12636 -2.4219 -0.0044788 34
99 3 -0.580039 -3.77729 -21.3616 0.198274 -3.10056 4.47536 99
168 3 -7.03801 -24.5283 -14.3769 1.56323 0.0766321 3.91556 168
167 3 -4.89089 -24.9909 -14.9113 -4.11446 4.90938 -3.37254 167
27 1 -2.51587 -25.0728 -14.3136 -0.122372 -3.95367 4.08653 27
178 3 -3.78392 -18.0711 -14.1892 -4.76805 2.38761 -3.45363 178
174 3 -0.649286 -21.7089 -14.3769 -1.06418 5.21075 3.52209 174
17 1 -1.89523 -17.7935 -12.9185 -0.470854 -0.775645 0.870092 17
85 2 -28.4407 -2.71725 4.48346 -0.799965 -1.46373 0.626148 85
86 3 -29.2616 -3.61986 4.62964 0.56379 -1.827 2.91895 86
87 3 -27.1315 -2.89436 4.66325 -2.39493 -2.28695 -1.34025 87
8 1 -26.3736 -1.35615 2.96018 -1.05627 -0.476038 0.665377 8
88 3 -28.7722 -1.5291 4.04618 -0.112987 -3.05368 9.36168 88
92 3 -24.6689 -0.611507 1.61765 1.80783 -2.3448 0.170336 92
4 1 -21.2688 -1.415 4.199 1.60097 -2.77596 -1.94727 4
37 2 -21.2416 -4.69838 5.10959 0.104201 -2.74175 -2.39466 37
38 3 -21.3169 -4.84461 6.3916 -9.97601 -4.17146 -3.06102 38
39 3 -21.8334 -3.78817 4.51162 -1.82701 -7.94443 2.19229 39
40 3 -20.5528 -5.52518 4.33467 -1.6025 0.9723 -1.69417 40
89 2 -23.3979 -0.770901 1.64174 7.2734 6.0098 3.01166 89
90 3 -22.6512 -0.139307 0.814981 5.4859 3.31623 0.638669 90
91 3 -22.8847 -1.59975 2.49639 -0.267132 7.73824 -1.61636 91
2 1 -12.8343 -28.0071 15.2296 1.25617 3.11672 -4.01397 2
145 2 -1.13728 -6.68472 27.4359 2.29439 4.40705 0.0622792 145
148 3 -1.48691 -7.85384 27.9337 1.1468 3.46066 -1.00077 148
156 3 -6.62347 -3.22781 28.4793 -2.1264 3.8363 1.96588 156
67 3 -3.83381 -0.656681 25.4824 -4.44791 -6.67351 -1.17043 67
35 1 -3.01849 -4.90972 25.0757 1.01273 -0.044035 0.69046 35
65 2 -4.05932 -1.85098 25.0462 -1.53721 3.80352 -7.57406 65
66 3 -5.24618 -2.3018 24.989 -2.42246 1.358 -3.15619 66
146 3 -2.02468 -5.8201 27.0936 4.40003 3.49159 -2.8828 146
68 3 -3.0517 -2.58419 24.667 -3.19715 0.473502 -2.51114 68
153 2 -5.74549 -3.78151 29.2174 -4.84429 -3.82579 6.87054 153
155 3 -5.31237 -4.98313 28.9455 7.66828 -1.16636 4.42686 155
12 1 -8.42147 2.99805 -27.9262 -1.51786 0.00676375 -3.03228 12
60 3 -6.41668 4.01424 -27.0129 1.09225 2.8748 4.26159 60
117 2 -2.95392 0.433007 -29.1073 -2.74972 -1.91203 5.22415 117
118 3 -2.63604 0.196102 -27.8814 0.310841 3.37917 -0.356564 118
7 1 -4.01166 0.589177 -25.5862 -0.885356 -1.33706 0.546658 7
120 3 -4.12176 0.598 -29.4876 7.3546 -0.967898 -0.606768 120
57 2 -5.86366 4.89161 -26.2388 5.88968 -4.11094 4.33566 57
74 3 -0.237988 0.357598 -26.4984 1.52685 0.0901625 -2.21934 74
75 3 -0.115028 1.40427 -24.4828 3.1378 4.83198 1.8043 75
59 3 -5.14957 4.64125 -25.1669 0.743003 4.619 -2.48798 59
58 3 -6.02119 6.11646 -26.6105 -3.22995 1.09995 -0.341976 58
31 1 -4.28644 6.3374 -23.7466 0.86132 -3.11232 -1.50458 31
64 3 -28.8705 16.6485 -26.3384 1.17388 -1.92299 0.487915 64
28 1 -28.1807 19.3262 -26.4571 0.374223 -1.35655 1.96183 28
32 1 -8.52255 16.5501 -15.177 0.507834 1.41974 -0.379463 32
105 2 -10.3381 15.0106 -17.8437 -2.9548 5.88532 1.50071 105
106 3 -9.42361 15.7372 -17.2793 -5.6878 3.60523 -3.16826 106
107 3 -11.5416 14.9653 -17.4776 2.40653 5.70184 -0.745552 107
108 3 -9.99938 14.2103 -18.842 -0.137028 -4.60971 -4.01849 108
25 1 -13.8202 27.4567 -18.659 1.36284 -0.779062 1.6062 25
163 3 -12.3469 16.0088 -12.8672 3.26718 1.02024 -0.216937 163
161 2 -11.4197 16.5076 -12.0786 6.13245 -8.19647 -2.53733 161
162 3 -10.6252 15.7393 -11.3515 -6.04039 -0.818853 -4.89586 162
164 3 -11.2222 17.7341 -12.0926 0.273955 -5.16065 -2.6516 164
19 1 -29.0579 3.92572 -0.0206533 0.83368 -1.12637 0.632913 19
172 3 -27.5672 0.280101 -0.146172 -4.35223 0.723683 -3.39786 172
116 3 -26.9147 4.90831 0.349523 3.68257 -5.87303 7.72715 116
21 1 -25.1126 3.31468 0.372674 -2.11615 -0.550616 2.41736 21
169 2 -27.5122 0.930875 1.01116 -7.6196 7.47302 0.893848 169
122 3 -24.3774 4.0725 5.03453 0.133908 6.79377 2.80865 122
170 3 -27.6901 0.303801 2.0883 -4.12456 0.206923 -1.11755 170
171 3 -27.4653 2.21869 1.00234 3.88277 -1.39077 0.492119 171
121 2 -23.3518 3.31797 5.05354 -2.52979 -2.31291 3.839 121
123 3 -22.6606 3.21111 3.93329 -3.49611 0.72725 -0.0907419 123
124 3 -23.1341 2.68141 6.13047 -2.42 -4.30204 3.16883 124
113 2 -27.1723 6.10688 0.780131 5.03426 -1.95715 3.12144 113
114 3 -28.3683 6.50911 0.954801 -0.898133 7.1641 -0.967283 114
115 3 -26.1821 6.94649 0.871341 0.25922 2.57414 1.54823 115
14 1 -24.5141 6.342 5.36901 -3.51238 3.8638 -3.1968 14
20 1 -0.47066 11.5388 6.30978 2.37208 2.50549 -1.82529 20
129 2 -1.6628 14.7824 6.03334 -2.69846 1.8828 -2.63548 129
130 3 -2.93224 14.8804 5.74879 0.742953 -3.0662 -0.355964 130
131 3 -0.907906 15.6981 5.54824 -2.19084 2.18835 1.43136 131
132 3 -1.19332 13.7222 6.70105 -3.31091 -0.115007 6.73883 132
150 3 -18.6861 2.92895 10.2202 -4.34597 2.07771 -1.55572 150
149 2 -18.8174 1.77307 9.81807 -9.45763 -3.20749 5.81504 149
103 3 -21.0237 5.71518 9.08642 -1.42009 -0.802356 2.94023 103
151 3 -17.9737 0.868528 10.2609 9.0454 5.0095 1.83562 151
152 3 -19.8017 1.40061 9.07332 -3.74201 -3.17164 -0.899907 152
10 1 -23.6746 2.00233 8.35325 -0.272362 0.561042 -4.56754 10
36 1 -17.6601 3.96629 12.0232 3.35501 -0.31222 0.714664 36
102 3 -23.1546 6.35587 9.32519 -0.404758 3.74098 2.03063 102
101 2 -21.9535 6.26494 9.82238 -0.271483 6.40377 -2.30566 101
104 3 -21.6365 6.72681 10.9382 -3.81879 -5.65124 0.0252608 104
80 3 -28.5683 16.6732 12.8999 3.48603 -0.0119532 0.106745 80
23 1 -26.4015 13.1629 12.1351 0.246337 4.58004 -3.27292 23
77 2 -27.6318 15.9615 13.3492 2.44265 2.04737 -1.60386 77
78 3 -26.4798 16.4982 13.725 6.60574 4.20021 -0.912968 78
79 3 -27.7866 14.6747 13.3459 -4.47564 -4.3312 7.24436 79
49 2 -12.5109 28.4821 15.7733 -11.7437 0.387276 0.299939 49
51 3 -12.9515 28.0675 16.8714 -6.15104 -3.49792 2.72416 51
52 3 -13.1165 29.3459 15.0003 -5.98239 3.00142 0.470115 52
50 3 -11.4341 27.9786 15.3264 1.03037 -1.44438 -2.84449 50
119 3 -2.04225 0.452538 29.6903 -4.2154 3.25597 2.56202 119
3 1 -3.37081 0.0734944 27.7238 0.657129 -3.08824 5.36317 3
93 2 0.64118 -6.03847 -25.1085 5.04676 5.58632 5.20669 93
94 3 0.736486 -7.30364 -24.8709 5.02646 -5.32801 1.01259 94
56 3 5.34329 -0.713808 -22.7217 3.86619 -0.0254183 8.34743 56
81 2 0.825473 -3.43019 -28.1516 -1.33715 -2.16423 -0.749092 81
98 3 1.03434 -2.64864 -22.4847 -3.38214 -1.60965 -0.557655 98
82 3 1.70923 -3.96853 -28.879 -0.784582 11.7579 -3.38073 82
84 3 1.07607 -2.55171 -27.2157 0.562031 -4.38522 1.12723 84
9 1 1.72394 -2.94321 -24.8749 0.458417 3.88392 5.40475 9
76 3 0.716283 -0.637826 -24.7151 9.68151 0.464211 -4.5817 76
30 1 3.08955 -5.91865 -22.6074 -1.27801 0.134044 -1.21801 30
95 3 1.3462 -5.16042 -24.5145 8.04804 -0.341828 -4.2038 95
110 3 16.0644 -18.0913 -16.7689 -9.21311 1.87329 -2.7352 110
11 1 14.1251 -15.417 -18.5089 0.68797 -0.037931 2.66741 11
109 2 15.5627 -17.1957 -15.9883 2.43812 4.58845 4.88856 109
111 3 14.8375 -16.2996 -16.465 -2.12135 -1.30646 -2.45842 111
137 2 9.00777 -10.6397 -16.725 3.8727 -6.07719 -4.32276 137
138 3 10.2978 -10.8221 -16.9032 -4.5288 -5.69727 8.70908 138
139 3 8.20102 -10.5093 -17.7262 -2.12709 -1.47838 4.42167 139
140 3 8.4681 -10.7412 -15.517 -6.23849 -2.35828 -1.5538 140
97 2 0.61098 -3.64418 -21.7422 -5.62965 3.09788 3.4049 97
100 3 1.52054 -4.50388 -21.4017 3.22824 2.14696 -7.77153 100
53 2 4.29352 -0.214017 -22.0764 2.69372 -1.6857 0.830005 53
22 1 0.808988 -0.210378 -22.2513 -2.22084 1.12315 -0.517251 22
54 3 3.11898 -0.700812 -22.2598 2.21229 -0.12658 -2.16143 54
5 1 8.41807 -12.9558 -14.1629 -3.03179 -0.768967 -1.33571 5
112 3 15.7951 -17.2406 -14.6918 0.0505489 2.11405 -1.80038 112
70 3 5.52558 -11.8827 -11.9694 -4.93856 -7.14958 1.52192 70
18 1 7.27892 -9.1861 -14.2051 -0.700955 0.440103 -5.73518 18
69 2 6.76383 -11.6359 -11.6369 0.728094 7.24412 -1.36006 69
71 3 7.08314 -11.4696 -10.4244 2.27761 -3.0297 -0.511004 71
72 3 7.65727 -11.4164 -12.555 0.199157 1.61451 0.896214 72
1 1 29.6576 -0.168571 2.41574 -4.07943 -1.49797 4.0091 1
147 3 0.173112 -6.37203 27.3599 -3.22199 1.06537 -0.314456 147
73 2 0.117972 0.364583 -25.2239 -1.77626 2.40857 -4.47588 73
16 1 27.4182 14.3206 -27.5399 -0.788612 2.69717 -2.17609 16
61 2 29.6973 17.0301 -26.7621 -7.53609 -1.2817 -1.52824 61
158 3 26.8193 15.2765 -29.6562 1.81101 -0.663997 -0.413734 158
62 3 28.7269 16.197 -26.9127 -4.51136 3.47938 0.270053 62
63 3 29.496 18.2337 -27.019 -5.38931 2.17353 -0.170628 63
55 3 4.48801 0.811861 -21.3075 -1.39273 -2.3315 4.01108 55
41 2 28.9566 2.9994 2.6921 0.267723 -4.53628 3.02039 41
42 3 28.892 1.9573 1.97945 0.77421 -4.37179 2.23253 42
43 3 29.6579 3.98746 2.24896 -1.04844 2.40699 -4.22388 43
44 3 28.314 3.06101 3.80825 -1.92155 -1.62066 -2.96714 44
159 3 24.9533 14.8208 28.8146 -0.112775 -7.022 -4.20885 159
160 3 26.9741 14.413 27.9834 2.13094 -2.74802 -7.74778 160
157 2 26.2487 14.8329 28.9144 -0.339693 -3.31901 4.00636 157
ITEM: TIMESTEP
100
ITEM: NUMBER OF ATOMS
180
ITEM: BOX BOUNDS pp pp pp
-2.9849823217130805e+01 2.9849823217130805e+01
-2.9849823217130805e+01 2.9849823217130805e+01
-2.9849823217130805e+01 2.9849823217130805e+01
ITEM: ATOMS id type x y z vx vy vz id
48 3 -6.45016 -18.6148 -23.2922 -0.120805 3.76802 -3.57789 48
45 2 -6.22359 -17.8714 -24.3733 1.02192 0.587995 -4.06909 45
46 3 -6.10183 -18.4745 -25.5807 -2.91148 5.11878 0.0942525 46
26 1 -4.74959 -22.8278 -24.8081 -2.01851 1.58796 -2.61137 26
29 1 -7.45486 -12.2613 -29.2961 -1.81912 0.635481 3.8658 29
47 3 -6.03586 -16.6085 -24.2396 2.42412 -0.866809 2.83997 47
144 3 -5.83407 -13.4387 -28.2178 -2.99117 0.771968 2.50379 144
6 1 -3.71682 -15.6462 -24.6158 -1.28555 -1.3225 2.51057 6
141 2 -4.8516 -13.5676 -27.3965 -13.225 -6.11257 7.10992 141
142 3 -4.74216 -14.5986 -26.5913 -0.45683 -2.1408 -1.92665 142
143 3 -3.9641 -12.6325 -27.3447 2.7739 0.793295 -7.7825 143
96 3 -0.0730148 -5.7559 -25.8241 1.47261 0.0926128 7.05521 96
13 1 -1.05634 -5.89584 -28.0584 2.42239 0.432372 -1.02863 13
128 3 -2.88592 -1.64006 -25.3774 1.49839 0.691381 -1.02799 128
83 3 -0.296557 -3.74295 -28.0023 2.67163 3.15996 4.99655 83
154 3 -5.12744 -3.47982 -29.1541 4.3885 -8.15101 -3.80402 154
125 2 -3.49678 -2.59599 -24.8172 3.55619 -3.23163 -3.05148 125
126 3 -4.70535 -2.90402 -25.1232 -3.3337 -3.8035 2.94439 126
15 1 -1.21429 -1.72697 -27.0162 2.81714 0.0865136 0.241186 15
127 3 -2.81822 -3.25144 -23.9246 1.70347 -0.762733 -0.252875 127
165 2 -5.89068 -24.4644 -15.2301 -0.5579 5.98077 2.27517 165
166 3 -6.04677 -23.599 -16.1643 -3.05282 0.46299 3.35632 166
24 1 -7.68925 -22.6683 -17.7049 4.26469 2.64534 -4.03182 24
136 3 -6.12931 -23.2326 -19.4102 3.70805 7.32859 1.36606 136
176 3 -1.51879 -21.2881 -16.55 7.8454 -2.38996 -2.9054 176
33 1 -2.77207 -21.9015 -18.3894 -4.12353 0.0837384 1.71132 33
177 2 -4.36209 -18.4176 -15.3294 -1.88694 0.0373629 0.445469 177
179 3 -5.20597 -19.4066 -15.424 0.468717 -6.1832 -3.47992 179
180 3 -3.82367 -17.8726 -16.3602 -1.8046 3.8694 -2.26412 180
133 2 -5.41705 -22.4898 -20.178 -0.868957 -4.07746 1.19977 133
134 3 -5.92791 -21.603 -20.9761 -2.2269 2.01398 2.58865 134
135 3 -4.11617 -22.5811 -20.0783 2.35934 -3.67441 2.77308 135
173 2 -1.30059 -22.1644 -15.6529 2.71503 -9.15825 7.7813 173
175 3 -1.35435 -23.4391 -15.8742 -0.167951 3.87321 1.66804 175
34 1 -2.87073 -4.7284 -22.1845 -1.28721 -1.87596 2.65943 34
99 3 -0.664756 -3.98448 -21.7829 -2.40749 6.46167 -2.42981 99
168 3 -6.91368 -24.8308 -14.5263 -1.72145 -3.53699 -1.31922 168
167 3 -4.73335 -24.9358 -14.9875 -4.08515 -2.98089 -6.08996 167
27 1 -2.36356 -25.1259 -14.268 4.21751 -2.47627 -0.241333 27
178 3 -4.07415 -18.0696 -14.1867 -1.756 0.648381 0.559853 178
174 3 -0.938903 -21.7328 -14.4926 -0.978581 -7.45795 -1.9175 174
17 1 -2.0579 -17.8444 -13.1033 -0.824863 -1.29143 -1.94303 17
85 2 -28.4897 -2.57237 4.46235 8.80763 7.80044 1.08917 85
86 3 -29.3609 -3.40094 4.90614 -3.85242 1.05068 2.30549 86
87 3 -27.2478 -2.83758 4.42891 -3.39635 4.90381 -5.01951 87
8 1 -26.5008 -1.17456 2.82979 -3.25932 -0.680834 -2.9029 8
88 3 -28.8635 -1.47985 3.96993 -0.888341 0.184478 -2.00459 88
92 3 -24.5662 -0.440449 1.95849 6.66452 2.66378 2.51623 92
4 1 -21.3815 -1.54018 4.16763 -4.58924 1.32177 1.10595 4
37 2 -21.2605 -4.73304 5.08455 6.4145 0.13538 -7.1572 37
38 3 -21.3568 -4.76576 6.38599 -3.99955 2.04708 0.444893 38
39 3 -21.8097 -3.77897 4.49472 0.169032 4.08689 -1.79938 39
40 3 -20.6516 -5.57326 4.3455 0.334669 -3.12806 6.82794 40
89 2 -23.3144 -0.617502 1.62462 -1.08185 1.50545 5.29418 89
91 3 -22.7138 -1.63206 2.04798 5.55071 -1.82495 1.8019 91
3 1 -3.6009 -0.0651225 27.8616 -1.87492 -1.73669 5.05647 3
2 1 -13.1803 -27.8964 15.2783 -7.77604 2.52031 5.24406 2
155 3 -5.01869 -5.23533 29.2683 2.70534 -7.32316 5.32751 155
145 2 -0.903331 -6.48115 27.4125 4.49082 -4.78438 3.36717 145
148 3 -1.28091 -7.59284 27.9417 4.40024 3.59276 0.550537 148
156 3 -6.23651 -3.47685 28.6054 4.71285 5.40833 -4.63063 156
67 3 -4.1396 -0.585354 25.6337 -0.93214 3.95408 -1.01654 67
35 1 -2.87093 -4.83877 25.0897 1.25485 -1.91296 -0.436871 35
65 2 -4.24165 -1.79252 25.3078 5.57189 6.3718 1.33731 65
153 2 -5.46246 -4.05373 29.5011 -2.76547 -6.76126 -4.16213 153
66 3 -5.4234 -2.30198 25.2222 4.13706 -2.8182 -1.36818 66
146 3 -1.78403 -5.56857 27.2997 3.24655 1.61484 -0.355549 146
68 3 -3.19929 -2.49324 24.9697 5.59344 -1.91659 3.56289 68
12 1 -8.32167 3.37157 -27.8829 -0.0120002 3.96908 1.33418 12
60 3 -6.27996 4.04315 -26.8282 -1.81132 -0.823919 1.47578 60
117 2 -3.08015 0.32609 -29.0993 2.61177 -6.25312 -4.94654 117
118 3 -2.79476 0.0344632 -27.8627 -3.29936 0.472216 4.29779 118
7 1 -3.88919 0.578805 -25.8492 -1.14679 1.20133 -1.69167 7
120 3 -4.27624 0.438248 -29.5681 -3.27561 -1.33876 -3.54152 120
57 2 -5.82808 4.95855 -26.0853 -6.00615 8.34538 1.24103 57
74 3 -0.052164 0.215145 -26.3385 -0.552899 0.548094 3.7996 74
59 3 -5.04661 4.73692 -25.1109 -1.81626 -0.734107 -2.82165 59
58 3 -6.1151 6.16828 -26.4556 -0.94567 -0.80985 2.0913 58
31 1 -4.12006 6.3753 -23.5983 1.11048 0.959258 -0.801327 31
64 3 -29.0293 16.4751 -26.4714 0.981541 1.8679 1.08848 64
28 1 -28.2921 19.4672 -26.3906 -0.913893 6.37873 0.667436 28
32 1 -8.65745 16.6433 -15.1307 -3.06093 0.249405 0.914413 32
105 2 -10.2728 15.1721 -17.9471 6.08293 0.648288 -8.05579 105
106 3 -9.32425 15.8891 -17.4803 0.799206 2.86313 1.97884 106
107 3 -11.3235 14.9971 -17.2312 6.87042 1.68419 5.92044 107
108 3 -10.2236 14.6654 -19.1609 -1.41939 4.96737 -5.41701 108
25 1 -13.5024 27.3629 -18.6146 1.34921 3.99489 -0.293403 25
163 3 -12.3685 15.8493 -13.0939 4.32065 -4.79995 -1.78162 163
161 2 -11.3382 16.1031 -12.3754 -1.7161 -2.29251 7.10004 161
162 3 -10.7606 15.2326 -11.7391 -1.08658 -4.08802 -5.87689 162
164 3 -10.8989 17.341 -12.3642 4.19041 -1.58058 -6.12319 164
172 3 -27.9469 0.476207 -0.211989 -2.86929 -5.05233 5.69388 172
19 1 -28.9663 3.89979 -0.065582 0.33411 1.96604 -4.37857 19
116 3 -26.8388 5.02054 0.206285 -0.501203 6.19584 -4.89705 116
21 1 -25.2379 3.23591 0.474606 -3.88476 0.974019 0.152716 21
169 2 -27.7946 1.10395 0.929473 -1.99072 -0.538074 -6.04971 169
122 3 -24.4317 4.20191 5.14869 -2.2147 5.50072 -2.26086 122
170 3 -28.0526 0.429707 2.00924 2.90997 2.69937 0.231825 170
171 3 -27.4831 2.3194 0.924835 2.59474 3.98069 1.16291 171
121 2 -23.4764 3.33099 5.01306 -9.38553 12.0983 -0.852028 121
123 3 -22.8118 3.32586 3.88215 -4.84459 0.160658 3.81654 123
124 3 -23.2286 2.46698 5.9646 1.72329 -2.70948 2.48628 124
113 2 -27.1705 6.17882 0.699207 2.74256 1.33498 -3.00971 113
114 3 -28.426 6.56668 0.66983 -3.35685 -2.37722 -1.70312 114
115 3 -26.2848 7.03053 1.177 -4.97793 6.75546 -1.74336 115
90 3 -22.6683 0.272592 0.954337 -1.8382 -0.0146023 -1.78431 90
14 1 -24.5265 6.53571 5.2894 -0.560523 -1.37066 0.582759 14
20 1 -0.292268 11.6911 6.28285 -1.20662 2.22293 0.51227 20
129 2 -1.71221 14.836 6.10932 1.7149 -2.36811 -2.01317 129
130 3 -2.98806 14.7047 5.97354 2.29352 -3.6281 -0.564827 130
131 3 -1.11916 15.8636 5.62828 5.19008 -0.711771 -2.38967 131
132 3 -1.01036 13.8764 6.69461 0.981093 3.65996 -4.57258 132
150 3 -19.0551 3.07024 10.301 0.0295612 2.22358 -0.32277 150
149 2 -18.9668 1.902 9.75079 6.76 -5.46863 1.32988 149
103 3 -21.0954 5.97362 8.94107 -0.858026 -4.37849 0.889585 103
151 3 -18.019 1.07082 10.1711 5.33006 -4.00208 -2.35925 151
152 3 -19.9542 1.49733 9.01298 -1.03732 3.65208 2.64142 152
10 1 -23.7219 2.01899 8.20648 3.19907 2.26982 -2.81812 10
36 1 -17.8216 4.01823 12.0517 -3.88533 4.35079 -0.817119 36
102 3 -23.2144 6.49567 9.43472 0.755965 -3.04042 -0.902771 102
101 2 -21.9911 6.33016 9.77392 -1.20052 -3.51704 -1.49105 101
104 3 -21.6473 6.69241 10.9473 -4.21922 2.757 0.951455 104
80 3 -28.5654 16.776 12.9059 3.87262 0.190078 -2.51301 80
23 1 -26.4596 13.4296 12.1167 -1.97345 -0.214967 2.62514 23
77 2 -27.5313 16.1771 13.4192 2.36773 -2.66314 0.53837 77
78 3 -26.3845 16.8019 13.7431 0.529882 6.62999 1.72475 78
79 3 -27.6755 14.9079 13.6024 2.11994 0.252611 -6.05301 79
49 2 -12.6112 28.5467 15.7231 4.81064 3.97235 -2.29787 49
51 3 -13.2039 28.0043 16.7355 -5.41209 2.01107 -3.89833 51
52 3 -13.0592 29.6269 15.1629 -7.07214 -4.68236 5.31029 52
50 3 -11.5521 27.9139 15.206 10.5791 -1.05975 -0.663969 50
119 3 -2.14898 0.4383 29.7418 -0.448586 -6.91467 -2.03922 119
93 2 0.881188 -6.00397 -25.051 -9.5146 4.56246 -5.14365 93
94 3 1.16635 -7.28366 -24.7788 4.6897 0.521045 -4.74822 94
56 3 5.46869 -0.920101 -22.2747 -0.0704472 -4.26662 5.27217 56
81 2 0.914827 -3.33713 -28.0609 -3.27792 3.47055 2.0796 81
98 3 0.989144 -2.65688 -22.5696 -1.32023 -3.17643 -2.69386 98
82 3 1.74633 -3.73693 -28.9374 1.99191 -5.37832 9.50065 82
84 3 1.30573 -2.45662 -27.2051 6.32445 2.82198 -2.25651 84
9 1 1.9106 -2.81383 -24.856 1.77576 -0.128375 -1.90636 9
76 3 0.994597 -0.649694 -24.5894 -7.03909 -3.8717 0.583566 76
30 1 3.05305 -6.156 -22.8534 1.57137 -2.01696 -1.91475 30
95 3 1.50956 -5.07244 -24.4476 -3.26099 3.22121 -3.68863 95
110 3 15.7201 -18.1449 -16.6167 0.144466 -3.29902 2.72374 110
11 1 14.1868 -15.4185 -18.5188 -0.915042 -1.80446 -1.05543 11
109 2 15.3924 -17.1646 -15.8258 -4.17934 -4.53965 -0.245599 109
111 3 14.8569 -16.1561 -16.3918 -3.74161 -2.97403 -5.02836 111
137 2 9.01395 -10.6983 -16.6393 4.08673 6.65948 -4.19112 137
138 3 10.2567 -10.7867 -16.7954 -1.67314 -5.60367 -4.3558 138
139 3 8.18214 -10.6325 -17.6312 9.76654 -4.73507 0.666781 139
140 3 8.51591 -10.8611 -15.4523 9.65412 3.53797 0.0255318 140
97 2 0.583517 -3.73471 -22.0116 10.5392 -1.76763 -3.04115 97
100 3 1.50573 -4.52274 -21.5623 6.87814 1.84957 -0.835918 100
53 2 4.38811 -0.318295 -21.8861 10.4935 3.43906 2.1911 53
22 1 0.807614 -0.276904 -22.2673 2.13089 -5.09642 6.41315 22
54 3 3.23507 -0.830486 -22.0496 -6.15604 5.93964 -0.109045 54
5 1 8.23231 -13.095 -14.4222 -5.97283 -2.19 2.86883 5
112 3 15.6772 -17.1464 -14.5776 5.2991 -1.00206 0.589565 112
70 3 5.19739 -11.7094 -11.6966 -1.77488 1.92649 -5.56543 70
18 1 7.38434 -9.26221 -14.158 -1.00913 0.493681 6.30551 18
69 2 6.53795 -11.596 -11.7728 -3.88879 -0.215014 1.33911 69
71 3 7.1926 -11.2658 -10.7246 2.32926 -1.35009 -5.11493 71
72 3 7.16188 -11.7272 -12.874 1.77478 -1.52738 -0.861181 72
1 1 29.4041 -0.401639 2.48885 0.439764 -1.7471 0.419291 1
147 3 0.299508 -6.34416 27.0179 -9.73612 -3.49623 1.63217 147
73 2 0.389072 0.343931 -25.1537 -4.34897 -2.54635 2.39416 73
16 1 27.5129 14.4978 -27.5981 0.542085 1.53527 0.553242 16
61 2 29.5037 17.0659 -26.7928 -3.08396 -7.64873 -4.60908 61
158 3 26.9225 15.0877 -29.7652 0.284255 -5.87427 -5.24732 158
62 3 28.3695 16.4905 -26.7624 -4.58089 -2.2208 0.342334 62
63 3 29.5579 18.3303 -27.0812 -0.0909784 0.0317884 -2.43404 63
75 3 0.21564 1.45162 -24.4291 -1.44163 -3.79902 1.34768 75
55 3 4.45191 0.806143 -21.2216 -2.91284 -4.88808 -6.43383 55
41 2 28.8747 2.96556 2.40229 1.75468 1.97945 3.64841 41
42 3 28.9595 1.91456 1.6531 -1.90273 -5.50717 2.73262 42
43 3 29.6669 4.00873 2.22711 2.88871 -1.41095 -2.45013 43
44 3 28.0424 2.94904 3.38133 -0.218091 -3.81062 -6.21643 44
159 3 24.8906 14.8672 28.9343 2.16846 1.00518 0.122595 159
160 3 26.7717 14.5109 27.7621 -6.44219 -1.40171 -5.21318 160
157 2 26.1868 14.8534 28.9126 -0.906878 0.789077 -0.602532 157
ITEM: TIMESTEP
200
ITEM: NUMBER OF ATOMS
180
ITEM: BOX BOUNDS pp pp pp
-2.9849823217130805e+01 2.9849823217130805e+01
-2.9849823217130805e+01 2.9849823217130805e+01
-2.9849823217130805e+01 2.9849823217130805e+01
ITEM: ATOMS id type x y z vx vy vz id
48 3 -6.52827 -18.4249 -23.18 1.79835 0.102164 -2.22428 48
45 2 -6.25652 -17.8202 -24.2732 1.70032 -6.86473 2.4706 45
46 3 -6.15575 -18.4329 -25.3583 7.49035 1.99215 10.0387 46
118 3 -2.68368 -0.272327 -27.7012 0.934356 2.75547 0.233925 118
26 1 -4.77394 -22.6473 -24.6854 0.055338 -1.29427 -4.53103 26
29 1 -7.36954 -12.1726 -29.2543 2.64788 2.26552 3.29955 29
47 3 -6.03108 -16.5422 -24.2542 -1.37268 -3.75544 -1.42981 47
144 3 -6.1019 -13.7492 -27.8742 1.31032 -0.255056 -0.99785 144
6 1 -3.67029 -15.675 -24.5472 1.91609 1.14084 3.42305 6
141 2 -4.97162 -13.712 -27.3137 -3.10456 5.34113 2.92324 141
142 3 -4.54696 -14.5761 -26.4777 -0.491078 -0.956291 -8.46856 142
143 3 -4.18158 -12.6802 -27.5919 0.0238986 3.19389 -0.23626 143
96 3 -0.342746 -5.81937 -25.6278 0.715153 -2.83364 -0.644651 96
13 1 -1.13933 -5.93291 -28.0485 -2.17382 -3.55092 0.113757 13
128 3 -3.03691 -1.36826 -25.3554 5.7081 8.92894 -3.53128 128
83 3 -0.0214272 -4.00693 -27.9803 -3.12519 2.60809 -6.14228 83
154 3 -4.96043 -3.53332 -29.2834 -1.93879 2.59754 5.16788 154
125 2 -3.45731 -2.44704 -24.8603 3.54258 6.15106 6.90353 125
126 3 -4.67513 -2.91439 -25.1427 0.773075 4.33045 2.87054 126
15 1 -1.13351 -1.80596 -27.1576 1.81331 0.721935 -4.21569 15
127 3 -2.65692 -3.15957 -24.1157 -2.331 2.17195 -4.48276 127
165 2 -5.88272 -24.5805 -15.2535 7.94585 -1.50294 -0.821002 165
166 3 -6.17026 -23.5879 -16.0413 2.31562 -0.220022 0.447473 166
24 1 -7.5197 -22.477 -17.9415 -0.598836 -0.039995 -2.8595 24
136 3 -5.93776 -22.9935 -19.5942 -2.58717 5.08401 -0.276242 136
176 3 -1.43112 -21.5625 -16.6215 -6.15665 2.22577 -5.28992 176
33 1 -2.77832 -21.9152 -18.2821 1.31493 -3.83281 -3.09253 33
177 2 -4.52876 -18.3129 -15.4836 -3.47944 2.49745 0.201011 177
179 3 -5.48499 -19.1805 -15.6118 -7.9848 0.37282 -0.391608 179
180 3 -3.72581 -18.0456 -16.4782 -2.30897 -3.67665 3.61626 180
133 2 -5.09849 -22.384 -20.3276 5.79749 4.32393 -0.565675 133
134 3 -5.55948 -21.6018 -21.3104 3.09022 -2.13676 -1.03652 134
135 3 -3.85641 -22.5677 -20.1402 -1.79239 1.95662 -2.54976 135
173 2 -1.11751 -22.3692 -15.6775 1.64251 5.50275 11.1311 173
175 3 -1.07405 -23.6404 -15.8722 9.014 7.43426 3.31222 175
167 3 -4.68868 -25.0064 -15.1517 5.76942 -3.38873 0.695765 167
34 1 -3.03745 -4.6914 -22.3569 -0.725695 1.04291 0.691322 34
99 3 -0.54902 -4.2296 -22.1899 0.702437 1.41245 -4.55493 99
168 3 -6.78164 -25.015 -14.4388 3.64908 -8.05746 -1.838 168
27 1 -2.17049 -25.0628 -14.3881 -2.85136 2.51516 -3.66544 27
178 3 -4.35426 -17.6664 -14.3548 -1.47578 9.44754 3.03631 178
174 3 -0.939716 -21.8464 -14.5486 -0.943671 3.91058 -1.09523 174
17 1 -2.28591 -17.671 -13.3244 0.57647 1.10006 -2.11842 17
85 2 -28.5578 -2.46691 4.32379 -4.5794 2.01757 3.23313 85
86 3 -29.4427 -3.40815 4.74646 -0.934309 -6.44678 -3.01658 86
87 3 -27.3367 -2.64763 4.31016 2.90855 -1.31201 5.21572 87
8 1 -26.3793 -1.12661 2.87627 6.59854 0.731151 2.35491 8
88 3 -29.0051 -1.28623 3.99953 0.978063 2.87081 1.51053 88
92 3 -24.4162 -0.261989 2.16822 1.08638 1.07919 0.672428 92
4 1 -21.3816 -1.45287 4.23007 -1.37943 -3.2379 0.791256 4
37 2 -21.3546 -4.81899 4.93985 -3.56338 6.17913 6.67405 37
38 3 -21.5548 -5.00999 6.24777 0.444033 -1.77561 0.328277 38
39 3 -21.7955 -3.72321 4.50718 -0.19046 3.799 0.435842 39
40 3 -20.6049 -5.59274 4.2318 0.695557 0.38427 0.269631 40
89 2 -23.2335 -0.540153 1.73363 0.0485568 -5.39747 -3.65651 89
91 3 -22.5395 -1.51876 2.22661 2.0773 2.77749 5.96037 91
3 1 -3.51968 -0.173673 28.0194 1.79647 1.03052 4.4887 3
2 1 -13.3366 -27.6189 15.4036 -1.53669 -2.45582 2.12887 2
66 3 -5.26557 -2.37292 25.1307 0.177226 -2.94406 -1.07677 66
153 2 -5.28795 -4.24857 29.3774 -4.07129 -2.25024 3.81173 153
65 2 -4.08674 -1.93078 25.3972 2.05699 -2.30696 2.93806 65
35 1 -2.63441 -4.8313 25.2156 3.47504 -0.855278 0.424681 35
156 3 -6.21581 -3.84006 28.5749 -0.0355881 -2.23164 5.16619 156
68 3 -3.04653 -2.65528 25.1318 1.51089 1.87042 2.22962 68
146 3 -1.80007 -5.57675 27.2344 1.91759 -1.79581 -3.33224 146
67 3 -3.98168 -0.710379 25.7993 -2.56456 3.7759 0.847336 67
155 3 -4.78088 -5.42416 29.3799 -0.807284 -0.691597 -4.11525 155
145 2 -0.841459 -6.40869 27.453 -2.52412 -1.77762 6.49642 145
148 3 -1.09631 -7.55859 27.8731 1.54386 -8.56122 0.370881 148
12 1 -8.40399 3.64145 -27.6937 -0.521482 5.15243 1.74254 12
60 3 -6.25088 4.21602 -26.7913 -4.83145 -3.21612 -3.22298 60
117 2 -2.98989 0.195654 -28.8775 5.64463 -1.41837 3.42167 117
7 1 -3.93794 0.746008 -25.7911 2.81221 2.6409 3.07438 7
120 3 -4.24259 0.442015 -29.2018 -2.48069 -1.42358 4.28475 120
57 2 -5.83192 5.31919 -26.2816 -6.27941 3.12317 -5.53246 57
74 3 -0.0853632 0.212202 -26.4017 -1.43467 1.31183 -0.346101 74
59 3 -5.38237 5.2535 -25.0706 -8.05064 9.25174 -1.32898 59
58 3 -5.95178 6.40779 -26.9361 0.958627 -1.40867 -7.51436 58
31 1 -4.07376 6.40929 -23.5988 -3.10149 1.87709 -1.13209 31
64 3 -29.1708 16.4252 -26.2625 -9.5387 3.33021 2.18133 64
28 1 -28.5068 19.7979 -26.3897 1.49783 -2.10495 4.55678 28
32 1 -8.6878 16.4864 -15.1295 1.53539 -1.87716 0.152502 32
105 2 -10.2064 15.0559 -17.9206 -1.11101 -4.52806 -5.60323 105
106 3 -9.17893 15.6114 -17.3223 -2.62572 -5.933 6.87264 106
107 3 -11.3129 15.0286 -17.2318 -4.92518 -0.157501 -3.62883 107
108 3 -10.1109 14.5095 -19.0961 8.6669 -0.663356 2.54013 108
25 1 -13.4856 27.4315 -18.6066 -1.84356 0.686492 2.89654 25
119 3 -2.07649 0.405557 -29.7805 5.2464 4.04497 2.78031 119
163 3 -12.5458 15.7102 -12.7077 -4.17893 2.23674 0.0533977 163
161 2 -11.365 15.9444 -12.2277 -6.02981 7.43504 1.69024 161
162 3 -10.7811 15.0404 -11.5404 3.63828 -4.46397 3.93332 162
164 3 -10.7783 17.0535 -12.4752 5.19897 1.43898 3.47512 164
19 1 -29.0462 4.17509 -0.0967867 -0.937738 3.28233 1.58556 19
172 3 -27.751 0.624629 -0.301672 2.54872 7.75142 0.132989 172
116 3 -26.8691 5.15852 0.0178872 -1.83142 0.211628 -1.51383 116
21 1 -25.3576 3.48961 0.417475 2.32982 2.95274 -1.4483 21
169 2 -27.7658 1.1985 0.819623 2.19493 -8.57107 -1.85393 169
122 3 -24.5382 4.02231 4.81887 3.70851 -1.02448 -0.846704 122
170 3 -27.9986 0.469035 1.87831 -0.575744 -3.7399 -1.78958 170
171 3 -27.7584 2.51413 0.922461 -2.86318 4.33333 7.26553 171
121 2 -23.4711 3.31281 4.87924 5.37963 5.25654 1.83021 121
123 3 -22.724 3.15444 3.83373 3.77256 -7.27972 4.95957 123
124 3 -23.0497 2.77586 6.00013 -1.8238 2.88535 -2.63475 124
113 2 -27.2353 6.32738 0.428001 -4.06209 5.99278 5.55246 113
114 3 -28.5058 6.59197 0.51327 2.96773 -0.29844 -6.22195 114
115 3 -26.3828 7.20548 0.742847 -4.73669 -0.876713 2.82164 115
90 3 -22.6752 0.271772 0.918076 4.38709 4.15141 2.14585 90
14 1 -24.7467 6.51005 5.24675 -0.1967 -4.46757 0.119304 14
20 1 -0.538764 11.7581 6.10576 -5.03076 -1.58138 -0.514101 20
129 2 -1.59789 14.8808 6.07918 -4.95169 5.00851 5.76102 129
130 3 -2.82956 14.5765 5.76433 -1.67342 -2.74035 -0.31329 130
131 3 -1.11177 15.9957 5.64625 2.10867 1.41932 4.04902 131
132 3 -0.902535 14.1112 6.81443 -4.20198 3.3763 -7.49868 132
150 3 -19.057 2.72215 10.3985 -1.2711 -1.5963 2.60202 150
149 2 -18.8517 1.52229 9.84648 2.56727 0.531419 -1.47706 149
103 3 -20.9573 5.93572 9.34941 0.957034 -1.48758 4.22898 103
151 3 -17.6819 0.950234 9.93724 -2.18687 -1.1103 4.2179 151
152 3 -19.8186 0.993398 9.29653 8.3973 -3.56569 6.67174 152
10 1 -23.5633 2.10971 8.23539 0.458386 5.41135 -0.347427 10
36 1 -17.8135 4.15022 11.9644 -0.302759 -3.93317 -4.15105 36
102 3 -23.1719 6.34672 9.31647 -0.193255 0.563839 -4.93184 102
101 2 -22.043 6.38364 9.92057 1.53419 -6.78649 5.38927 101