ITEM: TIMESTEP
0
ITEM: NUMBER OF ATOMS
180
ITEM: BOX BOUNDS pp pp pp
-29.849823217130805 29.849823217130805
-29.849823217130805 29.849823217130805
-29.849823217130805 29.849823217130805
ITEM: ATOMS id type x y z vx vy vz
1 1 29.5347 -0.176329 2.49364 2.94113 2.37011 -6.24935
2 1 -12.795 -28.1275 15.1655 -4.01738 -0.327253 2.53059
3 1 -3.37974 0.266903 27.6961 2.01967 -2.45088 3.56768
4 1 -20.9881 -1.41477 4.38406 -2.6854 0.38362 2.63546
5 1 8.60818 -12.9043 -14.2862 0.257366 0.626957 2.17595
6 1 -3.76509 -15.6742 -24.6785 -4.63849 3.03829 1.9007
7 1 -3.7154 0.645266 -25.83 -1.61711 -1.80497 3.72467
8 1 -26.3931 -1.29488 2.7867 3.3087 -3.9005 3.45196
9 1 1.52378 -2.91963 -25.0344 0.113588 1.37565 -1.19188
10 1 -23.4983 1.83421 8.31163 -3.2135 -0.335605 0.843982
11 1 14.152 -15.301 -18.7098 -0.363399 0.586764 0.809622
12 1 -8.31504 3.08751 -27.8379 0.64039 -2.4191 -0.352829
13 1 -1.61277 -6.07918 -28.1593 1.83117 3.44469 -3.8894
14 1 -24.4444 6.1821 5.35254 4.40635 2.30229 2.90152
15 1 -1.26508 -1.70866 -27.2978 1.06326 -2.35246 0.880589
16 1 27.3626 14.1024 -27.3706 -1.66491 1.20301 -1.41266
17 1 -1.91352 -17.8628 -12.709 1.00953 0.117515 -2.04956
18 1 7.49227 -9.44559 -14.0914 -2.99704 3.16135 3.16764
19 1 -29.1386 4.06614 0.100624 2.24569 -0.149015 -0.284074
20 1 -0.728041 11.4117 6.63248 5.14322 -0.783893 -4.24963
21 1 -25.202 3.3109 0.477417 -3.89868 -4.17545 -7.37133
22 1 0.67526 -0.279468 -22.2165 3.88852 0.920146 3.80038
23 1 -26.3657 13.2804 12.2617 -2.32828 -4.50972 -0.682234
24 1 -7.50827 -22.8211 -17.8336 2.12856 -1.3733 0.681422
25 1 -13.9782 27.4654 -18.6561 0.382119 1.11197 -0.352003
26 1 -5.05342 -22.7902 -24.934 -0.028399 -1.48119 -0.884479
27 1 -2.48964 -25.0398 -14.1126 -1.0118 1.80802 -2.33117
28 1 -28.4103 19.3684 -26.4656 2.32131 -0.690328 -2.54787
29 1 -7.30909 -12.3258 -29.3443 0.74232 1.02128 -0.818722
30 1 3.21158 -5.88797 -22.5763 1.26141 -0.743512 -0.749621
31 1 -4.19828 6.34306 -23.7632 -5.10943 1.71822 -0.369182
32 1 -8.64696 16.3291 -15.366 -2.44234 2.39435 3.05757
33 1 -2.75092 -21.8035 -18.1768 0.593112 -1.76059 -1.76786
34 1 -2.91327 -4.37527 -22.0794 1.67493 1.47106 -2.2108
35 1 -2.90335 -4.85139 25.2049 0.145681 -0.0704774 -2.61424
36 1 -17.6258 4.08525 11.8708 3.73598 -2.6188 4.31935
37 2 -21.0165 -4.57327 5.01768 -4.81661 3.89853 6.39495
38 3 -21.1713 -4.69675 6.30332 -3.88132 -1.53589 2.36279
39 3 -21.6058 -3.58182 4.43756 1.48929 -1.98741 4.54104
40 3 -20.4683 -5.45702 4.20966 -2.07192 4.61584 -2.0834
41 2 28.9796 3.05077 2.6481 0.448088 0.250581 1.47445
42 3 28.7348 1.99169 1.97395 -2.19982 -0.575737 4.46692
43 3 -29.7696 3.81046 2.31674 -2.56055 1.96123 1.36084
44 3 28.1992 3.33357 3.65158 2.48879 -1.21097 0.94874
45 2 -6.35502 -17.909 -24.3246 4.30869 6.06139 0.728083
46 3 -6.41036 -18.605 -25.3316 3.34832 2.25404 -0.896094
47 3 -5.92417 -16.6743 -24.4084 -3.40843 2.57063 1.2682
48 3 -6.57669 -18.3745 -23.1946 1.24321 2.73033 4.71233
49 2 -12.444 28.3733 15.5976 -2.13993 -0.259382 4.89277
50 3 -11.2899 27.9373 15.3889 0.766625 -0.241563 5.67067
51 3 -13.0425 28.0868 16.6822 3.8282 8.21405 -3.93554
52 3 -13.0849 29.1511 14.7783 9.40901 0.121181 -1.44979
53 2 4.12338 -0.151555 -22.3063 -11.0969 -1.2585 -1.66882
54 3 2.95681 -0.513361 -22.0598 -0.921384 -5.58075 4.07276
55 3 4.60747 0.917682 -21.713 1.30825 -0.0577269 6.65783
56 3 4.92684 -0.909277 -22.9854 -0.396746 -1.09094 0.031366
57 2 -5.91761 4.99198 -26.2571 5.27997 -0.966232 -2.45316
58 3 -6.34842 6.11893 -26.5124 -4.21265 -0.15161 -0.281477
59 3 -4.95099 4.8586 -25.3152 -0.310023 2.17422 2.33002
60 3 -6.42308 3.93258 -26.8081 -3.73239 2.68661 -3.70454
61 2 -29.8226 16.8289 -26.7312 -1.00466 -2.40271 5.65463
62 3 29.0685 15.8087 -26.9702 -1.09666 6.4153 -3.11192
63 3 29.424 18.0204 -26.8265 1.28894 -3.99034 7.53362
64 3 -28.6215 16.6514 -26.3843 -1.53453 -0.115226 -5.47835
65 2 -4.02831 -1.84006 25.0746 -2.52209 0.491234 -3.78488
66 3 -5.22576 -2.30433 24.8913 -1.14613 3.20564 -0.82727
67 3 -3.82653 -0.570318 25.4386 -1.91479 3.48141 -8.05212
68 3 -3.04833 -2.59834 24.8022 -2.15272 -1.03184 2.88777
69 2 6.62174 -11.4688 -11.7986 -1.96297 4.79278 2.3762
70 3 5.4352 -11.9378 -11.7583 -1.76428 2.16713 -4.87348
71 3 7.28849 -11.2073 -10.7033 -2.79122 -5.07899 4.67838
72 3 7.20599 -11.4031 -12.9237 2.61693 0.670556 5.96621
73 2 0.0691575 0.263545 -25.134 7.01236 -1.79495 -0.116307
74 3 -0.442501 0.342638 -26.3194 2.47802 -5.88123 -2.48253
75 3 0.0244264 1.25292 -24.3009 -0.403665 -0.537631 -2.85393
76 3 0.56751 -0.807488 -24.7427 1.01378 1.69997 4.15556
77 2 -27.5301 16.1865 13.4994 -5.48195 -0.28685 -1.08709
78 3 -26.4349 16.5372 14.0753 -0.629177 -1.21099 0.104186
79 3 -27.8123 14.9803 13.3366 0.30832 0.896831 0.539561
80 3 -28.4367 17.0492 13.1331 -2.96226 -5.72768 -4.14251
81 2 0.656813 -3.59528 -28.151 4.63324 4.03343 -1.46479
82 3 1.62127 -4.10864 -28.8434 -0.812741 0.332892 0.370969
83 3 -0.522221 -3.99865 -28.4074 0.95776 4.21545 -2.32392
84 3 0.909186 -2.69947 -27.2571 -2.48915 3.54792 3.61409
85 2 -28.4076 -2.71201 4.27541 -9.39667 -6.04874 2.71535
86 3 -29.3373 -3.60329 4.4384 -1.45292 2.63734 -6.15362
87 3 -27.2177 -2.96644 4.69329 2.33891 3.07891 -4.41233
88 3 -28.5646 -1.64389 3.55062 1.82087 2.87379 0.350573
89 2 -23.2374 -0.744107 1.64831 -3.53716 -3.62679 -8.56385
90 3 -22.619 0.0534127 0.848458 1.18721 -5.47121 -2.77733
91 3 -22.5294 -1.64665 2.38946 -8.18969 -0.212439 2.10107
92 3 -24.4954 -0.706555 1.68292 -1.11512 1.34641 -1.07533
93 2 0.405436 -6.03819 -25.2004 8.59007 -3.21197 3.07533
94 3 0.840289 -7.20258 -25.109 -5.10971 -2.79064 2.04574
95 3 1.01477 -5.09366 -24.5478 -3.82109 0.533191 7.67576
96 3 -0.606127 -5.69606 -25.9114 1.38185 6.8081 -1.46662
97 2 0.720753 -3.63855 -22.1143 -4.36066 2.28481 -4.01906
98 3 1.0612 -2.62705 -22.865 6.31894 -0.137609 -4.59262
99 3 -0.527276 -3.87639 -21.9568 2.54017 0.144857 0.687311
100 3 1.64507 -4.32308 -21.5602 -3.21223 1.50593 0.5112
101 2 -21.963 6.18734 9.62193 -0.276333 7.52388 2.25265
102 3 -23.1825 6.31064 9.17243 -5.13394 -2.26806 -3.0227
103 3 -21.0688 5.56639 8.96396 4.19963 1.95017 6.47422
104 3 -21.6088 6.68034 10.7905 7.38654 -3.08959 -3.04311
105 2 -10.2514 14.7145 -17.897 3.76158 2.84486 6.83114
106 3 -9.18806 15.3318 -17.364 4.01058 0.272296 2.34561
107 3 -11.3838 14.7176 -17.269 -2.07566 8.37137 -1.04664
108 3 -10.1847 14.2447 -19.0731 -0.581151 7.96068 0.927073
109 2 15.5083 -17.2891 -16.0238 0.0871286 11.5019 -6.70132
110 3 16.1877 -17.9486 -16.8747 2.83839 -2.51841 3.20797
111 3 14.7818 -16.2811 -16.4083 -2.31042 1.87733 0.734281
112 3 15.5376 -17.5253 -14.7196 0.000655374 4.146 0.0524027
113 2 -26.9382 6.18521 0.409459 -7.97284 -6.29317 0.0519721
114 3 -28.1686 6.10524 0.775972 -1.26966 2.19643 1.47026
115 3 -26.172 7.12537 0.729799 0.465269 -5.3306 0.945673
116 3 -26.4276 5.2543 -0.305192 0.446503 -5.43483 4.16295
117 2 -2.97294 0.489843 -29.2621 2.07295 -6.10448 3.18288
118 3 -2.78622 0.164455 -27.9794 7.2948 -5.5248 2.88701
119 3 -1.97203 0.753317 29.7095 -2.17203 -6.41108 2.5322
120 3 -4.17977 0.719807 -29.7156 7.67459 2.73852 -2.85138
121 2 -23.2343 3.15972 5.03623 -4.01765 -6.12999 2.80296
122 3 -24.3056 3.91621 4.96256 -1.63607 -8.38533 -0.461984
123 3 -22.4345 3.15259 4.08445 -5.66295 -2.15292 -4.11752
124 3 -23.0106 2.48515 6.10924 -0.803065 5.8959 -2.48296
125 2 -3.3432 -2.50097 -24.8245 3.00716 -2.77087 1.95542
126 3 -4.32131 -3.1698 -25.3823 2.23274 2.35734 6.04884
127 3 -2.98313 -2.83497 -23.6711 7.73648 1.39732 1.04177
128 3 -2.83453 -1.44043 -25.4356 3.40293 -2.28608 3.59041
129 2 -1.34276 14.7856 5.89911 1.74138 0.00049725 -3.39886
130 3 -2.62086 14.7308 5.91865 -4.5687 2.64379 -0.503586
131 3 -0.757785 15.7554 5.29362 -6.76946 5.39624 1.44654
132 3 -0.60348 13.8948 6.49997 -4.51465 -5.86517 3.34331
133 2 -5.21458 -22.644 -20.2723 -1.58265 -1.14333 0.0045177
134 3 -5.67 -21.8704 -21.1631 3.17915 -6.22117 -0.33706
135 3 -3.97186 -22.6263 -19.9991 -2.17007 1.87474 1.24742
136 3 -6.02303 -23.3263 -19.5009 0.300199 -3.52534 1.50419
137 2 9.16895 -10.6427 -16.5753 -0.124544 -4.82098 -4.7988
138 3 10.4247 -10.5145 -17.0023 7.64798 -5.78411 -8.69687
139 3 8.23063 -10.5606 -17.4837 -7.2343 -1.6141 -2.04836
140 3 8.87951 -10.819 -15.3801 -7.74146 3.91122 2.12708
141 2 -5.02376 -13.5735 -27.1581 4.18258 7.128 -2.62974
142 3 -4.85753 -14.442 -26.2645 5.54926 -0.496629 -3.44477
143 3 -4.33289 -12.489 -27.0782 1.05788 0.217562 2.16637
144 3 -5.72067 -13.7647 -28.2201 7.21195 0.759953 -3.39092
145 2 -1.21273 -6.72534 27.6002 -2.27657 7.13636 -0.650238
146 3 -2.15681 -5.88822 27.456 -2.43052 -0.740923 -5.48334
147 3 0.0260152 -6.3549 27.3397 10.0111 2.3336 2.81128
148 3 -1.47788 -7.88111 28.1293 -0.823253 -2.94235 4.83584
149 2 -18.7525 1.55275 9.75125 -5.67857 8.97903 5.65155
150 3 -18.8944 2.80974 9.97924 3.33967 -3.64111 0.844351
151 3 -17.8239 0.892196 10.3278 -6.8983 0.0284251 2.70054
152 3 -19.5871 0.968923 9.00418 -2.03276 3.73587 -8.54284
153 2 -5.69786 -3.72053 29.2043 -3.94161 3.769 2.56173
154 3 -4.9022 -3.24041 -29.5707 3.05878 2.07854 -3.53483
155 3 -5.71904 -5.00851 28.9595 8.2592 1.27295 1.30801
156 3 -6.46769 -2.91804 28.5813 -5.31577 -3.10834 -5.46926
157 2 26.2715 14.7973 29.0802 -1.33595 4.17232 -5.73645
158 3 26.9278 15.0376 -29.5422 -3.921 2.61439 -1.52155
159 3 24.9858 15.0911 28.9613 -0.666571 0.542793 -1.15438
160 3 26.8406 14.2296 28.1416 0.945477 -0.460172 3.17464
161 2 -11.1356 16.5966 -12.1517 -0.349318 5.09793 2.95876
162 3 -10.1564 15.8065 -11.656 6.30552 -1.63052 2.49352
163 3 -12.1315 16.0252 -12.7701 1.39064 6.86631 -1.11607
164 3 -11.0394 17.8852 -12.0354 -7.68601 -1.82809 -4.25427
165 2 -6.02787 -24.3692 -15.1658 -8.1048 -5.93631 1.07465
166 3 -6.10671 -23.7343 -16.2609 -0.747834 -1.28544 -2.77535
167 3 -4.87407 -24.856 -14.7779 -1.40901 1.763 -0.222998
168 3 -7.13722 -24.5741 -14.5277 -1.52487 4.29767 0.405264
169 2 -27.5512 1.1784 0.862924 -5.22066 -4.11493 4.69416
170 3 -27.8254 0.72205 2.04967 1.74965 0.07444 -2.54934
171 3 -27.3255 2.46849 0.705503 0.178416 -2.5895 -0.746685
172 3 -27.5276 0.39501 -0.121513 1.71059 -7.11895 -4.28468
173 2 -1.0832 -22.1572 -15.6357 4.36553 -3.67605 -5.35482
174 3 -0.828982 -21.7541 -14.4844 1.68994 5.6836 5.68324
175 3 -1.37336 -23.4286 -15.8792 -1.51391 -0.488678 -1.59038
176 3 -1.17225 -21.3061 -16.5662 4.46333 -4.38773 -1.49954
177 2 -4.34135 -18.6368 -15.2095 -7.17695 4.09506 -3.0531
178 3 -4.13279 -18.3414 -13.9256 2.01622 5.62469 2.2846
179 3 -5.34518 -19.4039 -15.5657 1.49158 3.11634 5.67664
180 3 -3.575 -18.1143 -16.1292 -1.70571 -6.58648 -0.426329
