ITEM: TIMESTEP
0
ITEM: NUMBER OF ATOMS
180
ITEM: BOX BOUNDS pp pp pp
-2.9849823217130805e+01 2.9849823217130805e+01
-2.9849823217130805e+01 2.9849823217130805e+01
-2.9849823217130805e+01 2.9849823217130805e+01
ITEM: ATOMS id type x y z vx vy vz id
112 3 -26.0402 -1.01947 -21.5901 1.10037 -1.20663 4.46934 112
32 1 -23.7053 -0.130446 -17.8681 1.2503 1.16103 0.0568813 32
52 3 -19.9864 -0.110876 -19.7744 -1.77663 2.88734 4.73354 52
121 2 -14.4821 -24.7526 -2.6879 -1.20514 1.13052 -0.328713 121
122 3 -13.2965 -24.8637 -2.18823 3.06904 4.16772 1.47753 122
124 3 -15.3705 -25.6298 -2.46681 2.25469 2.25958 -4.62615 124
123 3 -14.8267 -23.6885 -3.302 -8.49436 4.74515 8.6123 123
69 2 -11.0122 -22.7083 -1.2647 3.42757 10.2867 -3.23782 69
70 3 -11.0006 -23.4527 -0.186418 -4.83123 -4.48575 5.24374 70
71 3 -10.2352 -22.9685 -2.27846 -4.39519 -4.61461 1.23907 71
72 3 -11.7559 -21.6654 -1.24566 5.51464 5.57713 -3.05305 72
28 1 -8.59535 -21.7463 -3.52971 1.2339 -1.63417 -2.74588 28
18 1 -12.8773 -24.7281 0.215697 0.116122 0.433336 -1.28277 18
35 1 -4.36027 -23.9295 14.5295 3.06594 1.09111 2.38565 35
165 2 -3.55766 -27.3214 14.7295 1.05899 5.18609 -1.07104 165
166 3 -4.34192 -26.3357 14.6204 -2.2189 0.140916 0.432322 166
168 3 -2.67278 -27.5727 13.7457 -2.40659 2.83238 -1.0707 168
114 3 -8.26729 -21.7304 14.1806 -2.55851 -4.16618 -4.137 114
113 2 -6.95806 -21.6478 14.2129 -1.61303 -4.94008 3.96004 113
115 3 -6.42981 -20.612 13.6817 -8.04551 0.925077 0.245931 115
116 3 -6.19962 -22.5171 14.7434 4.33893 -0.723342 6.61405 116
48 3 -26.5615 -12.3759 12.6793 -1.3437 5.21053 0.0703087 48
45 2 -26.546 -11.7247 13.7687 3.7128 -4.16583 -2.75158 45
46 3 -25.4833 -11.1745 14.2496 0.145554 5.85271 1.76743 46
47 3 -27.6869 -11.5319 14.2816 5.72294 -3.25101 -5.17177 47
67 3 -23.0216 -25.8739 21.4534 -1.94179 2.716 -3.04787 67
99 3 -19.897 -28.8651 20.7898 1.36805 0.0908338 0.869322 99
80 3 -20.4118 -27.4999 18.2644 3.16015 4.35701 -2.54948 80
97 2 -19.3709 -27.9322 21.5144 1.46623 -3.79992 -0.285285 97
98 3 -20.1172 -27.0056 21.9698 2.80071 7.58025 -2.33187 98
100 3 -18.0748 -27.9506 21.8215 3.30534 -0.909951 -4.00927 100
22 1 -18.6598 -24.1262 20.3928 0.539812 4.09267 4.35101 22
152 3 -22.1007 -29.8303 18.7705 -0.498543 -1.20569 3.72935 152
26 1 -21.9571 -27.6623 20.2492 -0.111499 -0.7712 0.388759 26
77 2 -21.2068 -26.5569 17.7902 3.81638 1.81758 0.1394 77
29 1 -19.675 -29.6625 18.1512 -5.68593 5.21321 1.36256 29
78 3 -20.9924 -26.0212 16.6169 5.25325 -4.68678 0.889399 78
79 3 -22.2049 -26.2746 18.4817 -6.23499 6.18318 0.579497 79
36 1 -6.04735 -29.3161 16.0954 -1.71906 -2.23366 -2.57118 36
167 3 -3.73223 -28.1847 15.6991 5.26375 -0.662354 -0.317523 167
82 3 -23.9084 -24.6833 26.7319 -4.54893 3.62547 -1.1439 82
173 2 -23.9168 -29.5514 26.3422 -1.76193 5.09614 0.396597 173
176 3 -23.588 -29.2787 25.11 0.248183 2.25331 3.56773 176
96 3 -21.0567 -27.6045 24.6997 -0.548507 -0.0506156 3.22695 96
65 2 -23.0862 -25.1639 22.5032 6.81469 -0.644217 -2.73382 65
17 1 -22.0425 -28.4573 28.8524 2.38441 -0.0200716 -1.72749 17
66 3 -22.5398 -23.9789 22.5403 -5.87768 0.564202 -3.54982 66
68 3 -23.564 -25.6521 23.5949 -7.94456 -2.06308 -0.881937 68
117 2 -19.9254 -26.9356 27.258 -4.49005 3.81128 0.247423 117
118 3 -21.1906 -26.7521 27.4106 -1.38223 -6.99592 6.98716 118
119 3 -19.2041 -27.8024 27.9228 0.610022 3.80325 1.88639 119
120 3 -19.3142 -26.1443 26.4092 2.17349 4.48523 -5.73523 120
75 3 -19.0358 -23.9194 22.7025 0.43356 -6.3454 -0.311643 75
13 1 -22.9632 -26.6158 25.6972 -1.20258 1.31086 -2.28757 13
93 2 -20.2559 -28.6098 24.7246 0.364985 9.15705 -2.20878 93
94 3 -19.0046 -28.4129 24.6668 -5.78844 7.3942 -9.2034 94
95 3 -20.7213 -29.8339 24.8136 -4.50083 -4.24353 -0.254989 95
15 1 -19.41 -26.0238 24.0649 -0.749796 0.902961 1.93623 15
175 3 -23.6876 -28.6086 27.1915 0.953002 5.74436 -4.60947 175
128 3 -17.1195 -26.2447 23.8281 -0.945799 -5.67814 5.63644 128
34 1 -16.9632 -28.8215 23.6782 -1.12527 -2.52771 -2.10864 34
125 2 -16.4804 -25.2796 24.3122 -8.98329 2.63297 0.904246 125
126 3 -15.6756 -24.6288 23.5204 4.78058 -0.348079 3.27863 126
127 3 -16.5304 -25.0154 25.6042 5.41816 7.4014 0.368953 127
83 3 -24.2926 -22.5453 27.2363 5.5416 1.55579 -2.19451 83
19 1 -24.6528 -20.8805 25.5353 -1.84467 -0.871526 -1.19692 19
81 2 -23.7644 -23.6726 27.5785 5.92266 1.00154 2.13521 81
84 3 -22.9978 -23.7887 28.609 -6.16602 -3.01449 -3.5243 84
73 2 -18.9355 -23.1854 23.7592 11.6258 3.37343 0.415652 73
9 1 -18.2916 -23.855 27.056 -3.9076 1.54007 -6.96517 9
74 3 -19.0808 -23.7517 24.9336 1.96866 -7.61313 5.4336 74
76 3 -18.7719 -21.9306 23.6477 3.34763 -0.453429 7.21482 76
24 1 -28.5601 1.90757 -22.4352 -0.10965 0.748104 -1.68463 24
89 2 -27.8767 4.6535 -22.9779 5.47566 6.78234 -2.95532 89
90 3 -27.4866 5.79454 -23.4493 -3.27605 3.27277 5.53465 90
91 3 -28.8606 3.97127 -23.5719 3.72141 9.44215 -4.18037 91
33 1 -20.3708 1.77392 -23.461 3.11772 1.63229 2.76429 33
57 2 -22.9767 4.15025 -23.5999 1.49769 1.59725 -0.0523195 57
58 3 -22.217 3.42075 -22.8216 -0.891456 6.66042 -6.65349 58
59 3 -23.5292 5.26949 -23.2708 -3.11645 -4.77526 2.34627 59
60 3 -23.248 3.69274 -24.753 -1.31773 -0.0842511 4.88756 60
132 3 -24.3447 10.7297 -24.2172 2.73613 2.58481 -2.27493 132
129 2 -24.6954 11.6267 -25.0765 -0.368651 3.53363 -1.67818 129
131 3 -24.2059 11.5843 -26.2439 5.45101 -7.05019 2.78942 131
153 2 -26.9717 8.47451 -27.6369 -1.85191 -2.68852 -1.78988 153
154 3 -28.0959 8.56003 -28.2496 -3.28004 3.82121 2.75527 154
11 1 -24.4496 6.38011 -27.1842 -2.08978 -3.44397 -1.52161 11
155 3 -25.9724 7.89272 -28.2298 1.73306 2.92586 2.29744 155
156 3 -26.8874 8.88286 -26.3887 -9.66253 -2.20156 4.86447 156
130 3 -25.502 12.5715 -24.7252 7.69256 3.05378 3.62128 130
164 3 -29.2674 5.65567 -18.2602 -3.46021 2.59835 2.47989 164
133 2 -26.6923 1.19528 -17.0754 3.68657 -7.69987 -4.53263 133
134 3 -26.7264 1.9639 -18.0765 3.30447 4.36469 5.6333 134
135 3 -27.5301 1.33443 -16.1323 -1.80559 5.30221 3.7154 135
136 3 -25.7799 0.209921 -17.0937 -0.179856 0.388928 -0.519408 136
170 3 -24.0584 3.83189 -17.7219 -3.86417 2.07965 -3.04106 170
27 1 -27.7259 5.77648 -20.0344 -0.0851703 1.47809 2.06954 27
92 3 -27.422 4.19445 -21.8493 -3.74968 2.64973 -0.223861 92
109 2 -25.6658 0.238913 -21.4948 0.997236 1.09816 9.77062 109
110 3 -24.4653 0.572101 -21.9638 -1.46759 3.40046 -1.0541 110
111 3 -26.4624 1.11533 -21.0089 3.0014 -5.68066 -5.02962 111
20 1 -23.0723 2.13116 -21.1793 -6.06033 -1.69867 4.57137 20
49 2 -21.0722 0.369735 -20.2453 2.12394 -9.34954 0.878935 49
50 3 -22.1038 0.556867 -19.4475 6.93908 -0.760217 -0.54791 50
51 3 -21.1759 0.871989 -21.4412 -4.8658 1.33043 -0.429867 51
169 2 -23.1439 4.41609 -17.0294 -1.27972 4.04829 2.09253 169
171 3 -22.1145 5.01449 -17.5789 7.7384 2.18706 0.301616 171
172 3 -23.143 4.41011 -15.735 -3.71188 -0.483398 -4.87164 172
2 1 -24.8004 9.58413 -22.1916 -2.25421 2.0377 4.6064 2
101 2 -27.0131 10.1968 -19.8097 4.39524 3.64015 7.50937 101
102 3 -26.3379 10.0705 -18.7631 -2.26016 -4.44916 -7.08693 102
103 3 -28.0272 10.9704 -19.8221 2.42438 0.967165 5.47285 103
104 3 -26.7043 9.54266 -20.9054 -2.92101 4.64834 -1.95279 104
177 2 -25.5938 3.17694 -11.8488 -3.08641 5.26736 5.17807 177
178 3 -24.5477 3.04224 -12.454 1.33523 -6.95424 1.27735 178
179 3 -25.7516 2.58881 -10.6739 2.01255 1.42771 -5.46238 179
180 3 -26.4645 4.01998 -12.2543 2.08893 -0.0394921 -1.64059 180
8 1 -24.7199 4.90927 -13.9418 -4.46155 0.194099 -1.2123 8
41 2 -19.6411 7.46064 4.58647 8.27512 -4.17815 -3.16006 41
42 3 -18.3761 7.77563 4.63219 0.420819 -5.68905 2.12039 42
43 3 -20.4284 8.11869 5.32778 0.911094 -4.59023 1.53376 43
44 3 -20.0704 6.56123 3.75981 3.75625 -3.80152 1.47315 44
143 3 -29.6882 16.0014 19.5109 1.60004 -5.49131 -2.02787 143
151 3 -23.2769 28.0138 19.3358 -3.12526 0.907827 -1.7171 151
149 2 -22.6298 29.1273 19.6222 3.69607 -1.7697 -0.765913 149
150 3 -22.5457 29.5722 20.8553 -2.23218 1.57762 -4.22932 150
174 3 -24.5338 29.0768 26.6087 0.512803 -1.01256 -5.42553 174
3 1 -22.6794 29.2798 23.1859 -0.931409 -0.455379 0.690231 3
1 1 5.11463 -26.4504 6.52989 -2.30196 3.1901 3.33107 1
146 3 2.89909 -25.8535 7.40113 -4.64669 -4.63611 -3.41382 146
53 2 5.36295 -27.7571 1.49981 1.13474 0.388264 3.10496 53
54 3 4.60037 -27.9431 0.479626 5.72842 0.217072 -4.2262 54
55 3 4.81629 -27.577 2.62823 -2.81119 0.464078 -2.84588 55
21 1 8.44624 -28.943 1.59587 0.87643 -2.5494 2.04944 21
56 3 6.62652 -27.548 1.35391 -2.29105 3.06441 7.28207 56
138 3 12.7285 -28.7716 7.03427 4.52645 -1.32338 -4.98405 138
145 2 2.67089 -25.2497 8.57336 6.81124 2.9979 -1.15992 145
147 3 2.73878 -25.9422 9.69132 2.64876 2.95743 1.95614 147
148 3 2.29303 -24.0747 8.63961 4.25706 0.850954 -3.22072 148
6 1 2.35029 -27.8639 10.7497 2.3391 -2.14903 -1.17899 6
86 3 4.36743 -28.8769 10.2617 1.35949 5.66426 -0.908095 86
137 2 12.2255 -29.386 8.05991 -3.92349 2.21218 -0.993245 137
140 3 12.2018 -28.8407 9.16194 -1.3536 3.19594 2.65321 140
14 1 12.7432 -26.9237 10.5001 -0.946274 -4.47296 0.68553 14
31 1 29.6114 5.4749 -24.963 0.0403812 -6.91718 -0.821204 31
16 1 29.6906 2.29231 -15.3684 0.0889991 0.476225 1.79045 16
161 2 29.1634 5.72378 -18.0915 -3.26731 -1.65676 -6.49903 161
163 3 28.4018 5.50505 -19.094 2.10382 0.0797528 4.4084 163
162 3 28.7082 6.09845 -16.9223 2.09355 -0.920378 1.9459 162
30 1 29.5292 11.5798 -20.6452 1.19439 0.179912 -0.586572 30
4 1 22.0865 27.1413 -15.5705 -0.854106 -3.61992 4.03311 4
37 2 27.1557 2.60768 -10.9649 0.723596 6.37699 -7.94348 37
38 3 26.4341 1.78459 -11.6669 -1.81627 -2.57303 2.50854 38
39 3 27.3509 3.84676 -11.2914 8.25761 3.63627 -4.49707 39
23 1 29.8495 2.40889 -8.69161 -0.25959 -1.76072 -1.61599 23
40 3 27.6402 2.17445 -9.83981 1.74826 -3.41627 -0.298001 40
62 3 23.2444 27.6813 -13.8515 -1.24938 5.24606 -2.99056 62
61 2 24.0781 27.6944 -12.8363 -3.99458 -2.24217 8.41811 61
64 3 24.1141 26.678 -12.0277 8.75544 1.5408 1.39537 64
7 1 24.7341 25.3739 -10.0304 -0.981799 -0.436291 0.124113 7
63 3 24.8282 28.7239 -12.6621 -1.17714 -5.78487 -0.0779625 63
25 1 13.3214 23.2387 4.11148 0.671717 0.177761 -0.606996 25
158 3 13.7792 26.8335 1.4361 -3.07856 -5.02359 -7.20436 158
160 3 12.565 25.0876 0.809138 -2.76441 -3.23111 -0.0230876 160
105 2 12.6965 25.2607 6.87415 2.11757 2.14686 3.94162 105
106 3 12.6117 24.9701 5.62651 4.02135 6.85603 2.23712 106
107 3 12.1997 26.3342 7.28085 -5.06894 -7.02593 -5.1563 107
12 1 12.7478 27.1249 4.34835 -2.4287 -5.44039 -1.5148 12
157 2 13.2296 25.7541 1.73747 -0.338588 4.27383 0.313629 157
159 3 13.2651 25.3329 2.9562 -0.609991 0.653199 2.99557 159
85 2 4.64254 29.6964 9.73348 -9.39432 -0.97359 1.23199 85
87 3 5.55509 29.684 8.87359 0.40054 -6.65726 2.03373 87
88 3 3.98579 28.617 10.0771 -3.10431 -3.91551 -9.31261 88
5 1 11.0935 27.4449 9.41095 -1.78958 -2.70761 0.655697 5
139 3 11.6939 29.1506 7.90587 -2.65504 -4.47786 6.6188 139
108 3 13.1843 24.4231 7.71396 -3.24459 4.59741 -1.927 108
144 3 28.7206 14.5493 20.7484 -12.093 -2.75962 1.84241 144
10 1 28.2576 12.7516 22.2256 2.93224 0.702381 -3.98586 10
141 2 29.4694 15.6056 20.6137 -2.80189 -6.06602 0.884058 141
142 3 29.7212 16.2962 21.6854 -4.81674 3.50473 -2.72789 142
ITEM: TIMESTEP
100
ITEM: NUMBER OF ATOMS
180
ITEM: BOX BOUNDS pp pp pp
-2.9849823217130805e+01 2.9849823217130805e+01
-2.9849823217130805e+01 2.9849823217130805e+01
-2.9849823217130805e+01 2.9849823217130805e+01
ITEM: ATOMS id type x y z vx vy vz id
112 3 -26.1359 -1.07014 -21.6771 2.1548 5.24593 -2.44597 112
32 1 -23.698 -0.186613 -17.8188 -2.73606 0.722431 -1.66212 32
52 3 -20.169 -0.0426971 -19.4955 1.04944 1.75519 1.78877 52
121 2 -14.5802 -24.4487 -2.20791 4.10236 0.712122 6.84634 121
122 3 -13.3244 -24.2785 -1.81556 4.91809 3.25253 4.06476 122
124 3 -15.1861 -25.5426 -1.88815 0.442109 2.61295 6.7829 124
123 3 -15.151 -23.5708 -2.94386 -4.22826 -3.41609 -4.22154 123
69 2 -10.8452 -22.6675 -1.32552 -3.54292 -6.15749 6.89561 69
70 3 -10.6359 -23.6204 -0.413959 5.03075 -5.61985 -9.82142 70
71 3 -10.2181 -22.7779 -2.44101 -1.51947 1.11699 2.41325 71
72 3 -11.563 -21.6268 -1.1186 3.42533 2.53909 3.14608 72
28 1 -8.46105 -21.5297 -3.40948 1.63895 7.11776 3.76226 28
18 1 -12.6005 -24.7516 0.33706 2.71593 1.25024 2.3259 18
35 1 -4.12641 -23.9252 14.6557 2.05006 0.298477 -1.4686 35
165 2 -3.65982 -27.5736 14.5664 2.10577 -8.00646 1.04984 165
166 3 -3.99029 -26.3288 14.612 0.226397 -4.62598 -3.54257 166
168 3 -2.96545 -27.9668 13.61 -7.22266 -1.33415 7.03151 168
114 3 -8.19727 -22.045 14.2442 2.92113 -1.34584 6.73884 114
113 2 -6.947 -21.8423 14.4099 -4.64558 -0.149457 -1.35028 113
115 3 -6.44207 -20.7203 13.9782 4.34456 2.64056 -5.26217 115
116 3 -6.13809 -22.7565 14.9153 -2.54453 -3.43898 3.91698 116
48 3 -26.1892 -12.6548 13.0218 5.52032 -0.148686 3.98396 48
45 2 -26.5266 -11.6692 13.7252 0.362519 0.434799 3.14517 45
46 3 -25.6912 -10.7144 14.0587 0.741431 8.9203 -0.97313 46
47 3 -27.7234 -11.6428 14.1431 -5.68214 5.47012 2.56107 47
67 3 -23.2304 -25.813 21.248 0.115124 -0.694104 0.479323 67
99 3 -19.8184 -28.6849 20.6281 6.51395 3.06818 5.9719 99
80 3 -20.6958 -27.2851 18.3671 0.142013 0.0832672 -10.6801 80
97 2 -19.2088 -27.8624 21.3494 5.37148 4.60128 -4.08602 97
98 3 -19.923 -26.8613 21.7942 -5.97914 2.89329 -2.3599 98
100 3 -17.9273 -27.9789 21.65 -2.26664 3.97335 1.44894 100
22 1 -18.6373 -24.0282 20.4459 -1.80292 0.350509 -2.69954 22
152 3 -22.0817 -29.6284 19.1979 0.145013 1.65774 1.93557 152
26 1 -22.0576 -27.5348 20.3505 -0.091632 2.95944 1.26073 26
77 2 -21.277 -26.3914 17.6815 6.99372 -2.73883 -3.19801 77
29 1 -19.6456 -29.6419 18.4528 -1.07348 -1.88058 3.73603 29
78 3 -20.969 -26.3003 16.4629 -1.99485 -3.3623 -0.292945 78
79 3 -22.1656 -25.6063 18.2841 -1.03239 7.75271 1.91056 79
36 1 -6.0475 -29.4226 16.093 -2.5514 1.4206 2.52828 36
167 3 -4.11768 -28.4075 15.4897 -5.95345 -6.09754 -6.55943 167
82 3 -23.8342 -24.7001 26.7735 4.91258 1.03276 3.89836 82
173 2 -24.0346 -29.3029 26.1455 2.35371 1.32849 -3.0013 173
176 3 -24.0271 -28.9605 24.9343 1.01859 1.30353 -4.16262 176
96 3 -21.0817 -27.4668 24.4777 6.9021 2.11731 3.82774 96
65 2 -23.1477 -25.3069 22.4218 2.36215 1.2023 -0.148657 65
17 1 -22.092 -28.5292 28.9507 -0.604652 1.57366 -0.619626 17
66 3 -22.5824 -24.1762 22.5757 5.59207 -2.49661 -1.73164 66
68 3 -23.4592 -26.019 23.4735 -8.45402 -4.24115 -1.99488 68
117 2 -19.8603 -26.9356 27.099 4.25225 1.79078 -6.30852 117
118 3 -21.1028 -26.8989 27.4264 5.58093 -4.72782 3.04984 118
119 3 -19.0623 -27.7965 27.7249 -4.67155 1.42717 -8.78366 119
120 3 -19.3137 -26.0465 26.3377 2.11892 -1.14171 -3.60939 120
75 3 -19.2033 -23.8801 22.7835 -10.8373 5.23825 4.08467 75
13 1 -22.9589 -26.5829 25.7181 6.90401 -1.00075 -1.38776 13
93 2 -20.4236 -28.5401 24.4624 -1.6662 -8.42954 -4.69016 93
94 3 -19.1719 -28.5225 24.1975 -2.2737 -4.93748 3.57984 94
95 3 -21.02 -29.6914 24.7343 0.450943 -0.0950766 1.37709 95
15 1 -19.5525 -25.8779 23.9429 -0.28429 0.260806 -2.56495 15
175 3 -23.681 -28.4226 27.0063 -1.83971 -5.39028 3.69293 175
128 3 -17.2569 -26.1899 23.9669 -3.53245 -1.1511 -2.65223 128
34 1 -16.792 -28.6428 23.8421 -3.16292 1.03999 2.53714 34
125 2 -16.4519 -25.2741 24.4252 4.74702 14.5293 0.425159 125
126 3 -15.3672 -25.0132 23.7834 -0.703832 -3.41705 4.02327 126
127 3 -16.6976 -24.6483 25.5249 2.59447 0.629067 -1.98724 127
83 3 -24.2195 -22.5754 27.1933 -1.21995 -2.07967 7.7652 83
19 1 -24.7895 -20.969 25.4393 2.52488 0.418081 -0.691444 19
81 2 -23.7036 -23.706 27.5712 -7.26178 -0.35751 -4.41561 81
84 3 -23.1264 -23.8465 28.6823 -1.48944 -1.57646 -1.6466 84
73 2 -19.1367 -22.9079 23.7114 -0.998057 -1.10765 3.51361 73
9 1 -18.2956 -23.8794 27.0005 -0.418224 2.48661 1.16079 9
74 3 -19.4915 -23.1982 24.9349 -2.09609 2.83975 -0.76314 74
76 3 -18.6963 -21.7469 23.4577 -3.79087 0.344247 -1.91843 76
24 1 -28.4812 1.98697 -22.0391 0.775895 0.491119 4.12416 24
89 2 -27.8109 4.76123 -22.711 -2.66886 -10.2986 1.07016 89
90 3 -27.4546 5.89921 -23.0922 -5.74499 -5.83619 5.61133 90
91 3 -28.7054 4.09705 -23.3331 -1.82213 1.79235 6.76161 91
33 1 -20.3861 1.60903 -23.4444 1.14191 -4.54448 3.26994 33
57 2 -23.0425 4.07421 -23.6535 -2.36131 2.0483 -2.31545 57
58 3 -22.4572 3.1592 -22.9653 -4.92401 2.15084 2.12672 58
59 3 -23.3806 5.15811 -23.106 -7.13379 -1.40461 4.14834 59
60 3 -23.3998 3.85929 -24.8434 -2.92154 4.48656 -4.00567 60
132 3 -24.2051 10.4851 -24.4781 1.87003 -10.4875 -3.50724 132
129 2 -24.4289 11.4126 -25.3161 3.02944 -3.58204 2.63518 129
131 3 -23.9168 11.2555 -26.4963 3.89749 -0.179262 -0.702793 131
153 2 -27.0386 8.38656 -27.4943 -6.06153 5.02258 -1.55593 153
154 3 -28.0211 8.67956 -28.2334 -3.3913 0.710403 9.32316 154
11 1 -24.6278 6.27783 -26.972 -0.0543024 -5.10682 0.561223 11
155 3 -26.0357 7.70793 -27.9352 -1.75111 -2.37546 -1.34132 155
156 3 -27.0584 8.85499 -26.2564 -5.47808 -3.53808 -5.76946 156
130 3 -25.2161 12.3962 -25.0027 -4.02658 -3.55103 -0.323612 130
164 3 -29.4663 5.45441 -18.3695 1.35067 1.84693 0.101559 164
133 2 -26.9325 1.22466 -16.8915 -1.06199 -1.00511 -5.27596 133
134 3 -26.998 2.26003 -17.6802 -3.93863 1.33373 2.25665 134
135 3 -27.6903 1.33923 -15.8087 -2.28479 1.58961 4.0124 135
136 3 -26.1883 0.241861 -17.1588 0.319396 2.2845 0.0936305 136
170 3 -23.8813 3.85218 -18.0048 4.56142 -2.05894 -0.680212 170
27 1 -27.8372 5.81039 -20.0283 -2.94639 3.01037 3.61569 27
92 3 -27.1975 4.19944 -21.6911 -8.30105 -4.52883 4.0891 92
109 2 -25.8967 0.207577 -21.5539 3.82495 0.564624 4.1519 109
110 3 -24.7584 0.643527 -21.9324 -7.56876 3.5195 6.20257 110
111 3 -26.8163 0.867029 -21.0099 -1.80964 -0.407389 2.74508 111
20 1 -23.1481 2.07959 -21.0286 0.388088 -0.575985 -2.83682 20
49 2 -21.1127 0.590557 -20.0065 -9.44377 -0.888949 2.65484 49
50 3 -22.2501 0.619927 -19.4297 0.781088 -1.37895 1.08548 50
51 3 -20.9859 1.22305 -21.1403 6.51366 -0.719347 8.8304 51
169 2 -23.2682 4.53922 -17.0537 6.81956 2.62077 5.96411 169
171 3 -22.2964 5.38487 -17.3435 -6.15013 3.63062 1.11898 171
172 3 -23.5996 4.35168 -15.871 -3.47102 -8.66226 -1.91494 172
2 1 -24.9008 9.85275 -22.1008 -2.76474 5.796 4.22894 2
101 2 -27.0982 10.462 -19.696 -4.77313 -1.02272 -11.3585 101
102 3 -26.3071 10.0827 -18.7905 2.74349 0.525669 -0.449885 102
103 3 -27.9964 11.3431 -19.4728 -2.74812 1.07746 -0.165463 103
104 3 -26.8914 10.0394 -20.9102 6.7585 -3.12804 4.16545 104
177 2 -25.5248 3.08766 -11.8099 -4.44225 5.21189 5.71196 177
178 3 -24.5711 2.68267 -12.6083 1.71834 -7.27803 -3.79304 178
179 3 -25.4403 2.82801 -10.5719 -0.0451365 0.955974 -1.36639 179
180 3 -26.4949 3.72013 -12.3223 -8.53259 -1.00781 -3.09016 180
8 1 -25.0914 4.80806 -14.0941 0.494827 -2.15748 1.66312 8
41 2 -19.3468 7.14956 4.49926 -1.9216 3.04694 1.63704 41
42 3 -18.1837 7.60727 4.29039 7.14985 -5.49791 -3.2446 42
43 3 -20.098 7.69892 5.40506 3.4924 -10.5335 7.66699 43
44 3 -19.8234 6.14297 3.81972 -0.885678 0.0578466 -2.03576 44
151 3 -23.2096 28.1542 19.112 3.35322 0.102027 2.12381 151
149 2 -22.8062 29.1757 19.7642 -1.74817 1.57504 5.22251 149
150 3 -23.1002 29.3237 20.9828 -2.68613 0.318777 -1.66574 150
174 3 -24.4976 29.1964 26.4729 -7.69539 -1.05568 6.00891 174
3 1 -22.7316 29.2322 23.3561 -0.189862 0.559974 -0.133048 3
1 1 5.1837 -26.3157 6.58092 0.507663 -2.67496 -3.05142 1
146 3 3.08118 -25.9267 7.23317 -1.98445 -0.379124 -1.04796 146
53 2 5.4052 -27.648 1.5593 1.05757 -4.60157 6.68482 53
54 3 4.98528 -28.1976 0.461918 -4.30886 0.129631 -5.46139 54
55 3 4.63411 -27.6615 2.60893 1.90424 6.97448 5.79141 55
21 1 8.56888 -28.9057 1.57904 -0.00316498 2.8913 1.22466 21
56 3 6.5306 -27.0849 1.59392 0.190146 1.89313 1.33417 56
138 3 12.7788 -28.916 7.1342 1.2746 2.29893 2.38513 138
145 2 2.72737 -25.2713 8.33713 7.66277 -8.76488 -3.15046 145
147 3 2.63403 -25.8812 9.47047 -3.21513 0.408249 -1.07884 147
148 3 2.37877 -24.0713 8.22379 -13.2816 -1.54938 1.796 148
6 1 2.38781 -27.9916 10.6807 -0.82679 -1.84793 -0.934447 6
86 3 4.48158 -28.9533 10.2192 -2.40508 5.42089 0.983047 86
137 2 12.0821 -29.4842 8.10803 -1.92947 -5.49772 -7.02323 137
140 3 12.1243 -29.0048 9.30005 -2.36271 2.28721 4.97048 140
14 1 12.779 -26.868 10.367 -1.45389 -2.78355 -1.04642 14
31 1 29.5927 5.14237 -24.845 2.594 -1.8997 3.24791 31
16 1 29.795 2.15472 -15.2011 -0.450848 -1.50734 1.53016 16
161 2 29.0574 5.84753 -18.0545 1.15942 -3.63237 2.88989 161
163 3 28.1144 5.4861 -18.7737 -5.19072 -0.88584 1.67526 163
162 3 28.8772 6.57421 -16.9779 -1.96632 4.14616 0.940974 162
30 1 29.6474 11.7711 -20.4357 -5.45611 4.54695 -0.866823 30
4 1 22.0369 26.9777 -15.3266 -0.132069 0.854129 -1.62233 4
37 2 27.3523 2.72965 -11.0591 1.4212 -0.991863 5.53197 37
38 3 26.4022 2.02804 -11.6335 -4.88021 0.452138 -1.98294 38
39 3 27.5445 3.99689 -11.3742 -3.6381 -4.68568 -1.65948 39
23 1 29.6277 2.37757 -8.63501 1.47292 1.6505 -1.01444 23
40 3 27.961 2.1297 -10.1125 -1.10853 -1.67586 -3.77883 40
62 3 23.2289 28.1153 -13.5747 6.72156 -0.251194 1.84262 62
61 2 24.1655 27.7726 -12.7075 -7.62733 5.86564 1.16992 61
64 3 24.1951 26.6477 -12.1709 3.37678 -0.610375 -3.28111 64
7 1 24.8207 25.507 -10.0882 3.87191 2.89141 0.977411 7
63 3 25.025 28.6062 -12.3023 0.343944 -2.92711 2.90292 63
25 1 13.3061 23.3492 4.18412 -3.15395 3.56757 -3.03008 25
158 3 13.7066 26.9885 1.31992 3.5133 10.0412 0.803988 158
160 3 12.7671 25.107 0.579818 -1.40146 3.56282 7.15087 160
105 2 12.5955 25.422 6.93885 1.13703 3.40346 -3.26769 105
106 3 12.6972 25.2513 5.65575 -1.74266 0.657821 -5.15449 106
107 3 11.8156 26.3135 7.33074 0.281807 1.3344 2.95634 107
12 1 12.7019 27.1821 4.45818 0.88018 -1.16456 -0.351581 12
157 2 13.2464 25.8233 1.56631 2.77435 -0.989467 -0.244248 157
159 3 13.2518 25.3746 2.79718 -0.293424 1.42095 -2.32667 159
85 2 4.69092 29.6062 9.5711 1.90115 -0.451033 3.42452 85
87 3 5.38825 29.669 8.47353 4.74454 1.67691 -4.26491 87
88 3 4.29163 28.4706 9.95669 -0.55678 -0.945544 -0.270738 88
5 1 10.9776 27.3635 9.35459 -7.66829 -4.50651 -1.78111 5
139 3 11.2912 29.1502 7.89481 -3.88518 -2.34634 0.233779 139
108 3 13.3259 24.7274 7.72366 8.03223 -0.411945 -0.696764 108
144 3 28.33 14.6086 20.7738 -4.66751 2.05365 -1.71185 144
10 1 28.1634 12.8577 22.2064 -3.93748 3.93152 -1.53176 10
141 2 29.1861 15.5822 20.7311 3.64994 -0.906421 6.05577 141
142 3 29.667 16.1757 21.8177 -2.576 -5.12774 -0.560407 142
143 3 29.6051 15.9753 19.5814 -6.16039 -5.48879 2.78925 143
ITEM: TIMESTEP
200
ITEM: NUMBER OF ATOMS
180
ITEM: BOX BOUNDS pp pp pp
-2.9849823217130805e+01 2.9849823217130805e+01
-2.9849823217130805e+01 2.9849823217130805e+01
-2.9849823217130805e+01 2.9849823217130805e+01
ITEM: ATOMS id type x y z vx vy vz id
112 3 -25.8783 -1.10667 -21.734 4.09894 -4.44504 3.19106 112
32 1 -24.0261 -0.0757299 -17.6661 -0.971064 3.13943 1.95678 32
121 2 -14.585 -24.5458 -2.29223 0.980482 -2.82825 -4.79753 121
122 3 -13.4741 -24.2505 -1.72541 -3.12115 -0.784721 -2.69101 122
124 3 -15.1694 -25.6416 -1.99805 -0.091172 0.999003 1.98681 124
123 3 -15.0682 -23.7631 -3.22695 5.0247 -4.29546 -5.01146 123
69 2 -10.6581 -22.5707 -1.27655 6.40252 -2.60634 -7.40774 69
70 3 -10.4289 -23.4484 -0.363586 0.342305 3.39514 1.03093 70
71 3 -10.3177 -22.7944 -2.47593 4.29951 -4.52232 2.32193 71
72 3 -11.2786 -21.4817 -1.06598 2.22761 -0.414847 0.14644 72
28 1 -8.40306 -21.6899 -3.34461 0.343098 -2.21635 -1.01386 28
18 1 -12.5348 -24.7116 0.220255 2.14427 -2.25746 -2.05692 18
35 1 -3.90887 -23.9215 14.613 -1.29691 -2.32522 0.558966 35
165 2 -3.51259 -27.5538 14.6242 1.64934 -0.473975 3.34336 165
166 3 -3.74688 -26.2748 14.5473 -3.49251 2.43702 2.0724 166
168 3 -2.9949 -28.082 13.6162 4.5249 -1.44669 -4.30449 168
114 3 -8.0854 -22.1066 14.5193 1.35507 -2.90937 4.57131 114
113 2 -6.83482 -22.004 14.3483 0.013659 4.22565 -6.89605 113
115 3 -6.33074 -21.0216 13.6487 4.0711 -7.05715 -1.52985 115
48 3 -26.2219 -12.7816 13.1225 5.95502 1.29673 -7.50515 48
45 2 -26.6539 -11.7192 13.7561 -4.56139 3.65477 -3.11073 45
46 3 -25.8085 -10.897 14.2777 0.398887 -9.97477 6.60887 46
47 3 -27.9641 -11.5169 13.8949 -8.62791 1.45461 0.230125 47
116 3 -6.03888 -22.9031 14.8848 -4.18303 2.89507 -2.18349 116
67 3 -23.2277 -25.7297 21.3704 1.75395 2.1241 4.50883 67
99 3 -19.7342 -28.5025 20.8524 -2.60543 -2.95117 3.23513 99
80 3 -20.4937 -27.2551 18.3598 4.83314 -0.612934 -2.91368 80
97 2 -19.2496 -27.5503 21.5408 0.80387 8.28724 7.15447 97
98 3 -20.0189 -26.5239 21.6547 2.50094 2.39186 3.68366 98
100 3 -18.0263 -27.5544 21.9157 -3.21025 3.80124 -4.16877 100
22 1 -18.8222 -23.8258 20.3474 -1.80681 5.34865 -0.757082 22
152 3 -21.9118 -29.6443 19.3249 0.958975 0.976658 1.48437 152
26 1 -21.9799 -27.4556 20.3164 0.639536 1.90737 -1.1408 26
77 2 -21.1555 -26.3537 17.8269 -1.47671 -1.40635 -0.298003 77
29 1 -19.7339 -29.5821 18.4449 -0.890357 0.0188616 -1.60433 29
78 3 -20.9056 -25.974 16.6276 0.699114 8.35035 -0.806311 78
79 3 -22.1666 -25.7948 18.524 -1.7115 -9.41701 1.21145 79
36 1 -6.37132 -29.2077 15.9871 -7.66542 1.9398 -2.11796 36
167 3 -3.74192 -28.2472 15.6771 1.22841 2.5534 -3.64561 167
82 3 -23.826 -24.8491 26.9041 -1.9425 -7.65514 1.32326 82
173 2 -24.1175 -29.2859 26.206 3.53152 -4.05728 -1.46457 173
176 3 -23.8061 -29.0667 24.9409 -5.06333 -1.59325 0.602294 176
96 3 -21.0243 -27.5344 24.4148 -3.21371 4.04217 0.819338 96
65 2 -23.1673 -25.2724 22.5608 -4.68726 3.69149 5.05517 65
17 1 -22.1373 -28.5159 29.0854 -0.104219 0.11587 -2.51021 17
66 3 -22.6354 -24.1198 22.7939 2.88882 2.96124 3.41574 66
68 3 -23.683 -25.9713 23.5296 -5.27751 -1.03216 -4.55953 68
117 2 -19.8418 -26.8289 26.9535 5.52759 -4.09459 4.09459 117
118 3 -21.1355 -26.7706 27.2189 -3.90969 6.09993 1.26195 118
119 3 -19.1923 -27.7319 27.5239 -5.08417 0.883801 -3.21375 119
120 3 -19.2704 -25.9983 26.2065 -3.03414 0.591821 1.07711 120
75 3 -19.1389 -23.8288 22.5875 10.9107 7.01125 6.2334 75
13 1 -22.9996 -26.6759 25.6821 2.52393 -2.26779 2.48436 13
93 2 -20.3063 -28.6169 24.5909 1.30857 -3.23715 0.711129 93
94 3 -19.0681 -28.4819 24.4506 1.24313 -0.701662 8.85 94
95 3 -20.8342 -29.7505 24.6958 3.1879 5.12308 0.666751 95
15 1 -19.3834 -25.9293 23.9756 2.18889 -0.0183532 2.05063 15
175 3 -23.6999 -28.5139 27.1292 -4.67611 1.50778 3.85341 175
128 3 -17.0393 -26.3207 24.0477 -2.96791 0.491135 -5.08029 128
34 1 -16.8504 -28.7084 23.9882 3.24379 -0.961538 -1.68479 34
125 2 -16.2318 -25.3082 24.4613 -4.32633 2.4526 -6.7227 125
126 3 -15.3374 -24.9244 23.6856 2.06038 -0.199328 -3.96735 126
127 3 -16.4504 -24.6708 25.52 5.49314 -3.37888 -0.329418 127
83 3 -24.1475 -22.6731 27.2319 4.89298 6.01804 3.44 83
19 1 -24.7534 -20.9586 25.6248 2.55785 -2.77093 0.579424 19
81 2 -23.7002 -23.8012 27.6023 -6.12509 -2.46979 -0.93715 81
84 3 -23.0655 -23.9021 28.7595 -1.62522 0.833198 -0.554178 84
73 2 -19.0261 -23.1062 23.6024 2.16363 -9.81388 0.728498 73
9 1 -18.171 -23.8369 27.1145 0.208241 2.64986 0.531484 9
74 3 -19.0118 -23.6131 24.7651 3.16462 -4.05012 -0.0709929 74
76 3 -18.933 -21.8265 23.4868 1.90143 -3.74197 -2.64925 76
24 1 -28.4906 1.92441 -22.0159 0.255402 -3.09495 1.44344 24
89 2 -27.9546 4.69094 -22.6653 0.158387 -3.38933 -0.962491 89
90 3 -27.2873 5.69046 -23.132 4.7303 2.61909 -1.67728 90
91 3 -28.8748 4.14497 -23.3574 0.590605 1.60403 -7.67998 91
33 1 -20.3057 1.50302 -23.2544 0.550872 0.504327 1.24826 33
57 2 -22.8693 4.06642 -23.5716 -1.10224 -3.76046 7.12272 57
58 3 -22.2704 3.12838 -22.863 3.22529 -3.48932 4.45787 58
59 3 -23.3234 5.13264 -22.9943 -3.25228 2.80438 6.82365 59
60 3 -23.1091 3.87932 -24.8242 -2.60558 -6.16737 1.66991 60
132 3 -23.982 10.3464 -24.4906 -6.48414 0.962992 1.292 132
129 2 -24.4525 11.2996 -25.2487 5.29474 -0.546853 -3.98337 129
131 3 -24.1045 11.3295 -26.468 4.38711 -0.720922 -2.96857 131
153 2 -27.4143 8.41911 -27.3233 -4.23294 -2.0201 6.24581 153
154 3 -28.5096 8.52699 -27.947 -4.58767 0.659595 0.147724 154
11 1 -24.7571 6.1168 -27.1932 0.178658 -0.63423 -0.324101 11
155 3 -26.3537 7.82295 -27.8595 -3.00493 -0.59483 6.88902 155
156 3 -27.3669 8.8279 -26.1326 -4.49346 -0.595682 -0.958153 156
130 3 -25.2362 12.2576 -24.751 -5.59632 -0.718768 -1.45127 130
164 3 -29.5008 5.63235 -18.1738 1.63587 -8.33519 3.3427 164
133 2 -27.0813 1.16617 -17.0347 -6.20143 4.26892 1.49844 133
134 3 -27.0175 2.09721 -17.8824 3.0546 -0.234557 -4.14006 134
135 3 -27.9058 1.31496 -16.028 0.685839 2.77777 -6.93275 135
136 3 -26.4135 0.058473 -17.1749 -6.15837 -6.54054 -7.32668 136
170 3 -24.0991 4.29184 -18.1493 -0.531849 7.781 0.431615 170
27 1 -27.9681 6.01127 -19.9431 0.0108214 0.825046 -1.77722 27
92 3 -27.6302 4.17774 -21.5759 -3.64221 1.04699 -2.33221 92
109 2 -25.8244 0.141033 -21.5828 3.4538 -14.0402 -2.16856 109
110 3 -24.8262 0.784884 -22.0612 7.9233 -3.4789 -0.872815 110
111 3 -26.642 0.789539 -20.7621 -1.97871 3.46253 -1.62648 111
20 1 -23.2888 2.1056 -21.0059 -2.74123 0.282606 3.23696 20
49 2 -21.2709 0.587083 -19.8601 -5.09224 -3.93278 0.355149 49
52 3 -20.2272 0.0492496 -19.3139 5.17783 2.00796 3.38161 52
50 3 -22.3636 0.656845 -19.2221 -4.22753 4.62282 2.54327 50
51 3 -21.16 0.907863 -21.0866 -0.525317 -0.516875 0.0359974 51
169 2 -23.3736 4.53941 -17.0934 -1.28993 0.243182 -4.56041 169
171 3 -22.5011 5.47277 -17.1391 -0.68534 -0.671594 -0.882057 171
172 3 -23.629 3.80569 -16.0712 -2.40832 3.33885 -1.24469 172
2 1 -24.6896 9.81547 -22.3974 -0.400788 -1.15613 -0.650556 2
101 2 -27.1253 10.5455 -19.6548 -3.47537 -6.17945 3.58407 101
102 3 -26.5718 10.3461 -18.4803 1.1969 3.05262 2.50806 102
103 3 -27.9754 11.5238 -19.8344 0.745089 -0.305278 -4.68831 103
104 3 -26.7486 9.77553 -20.5708 2.51665 1.55419 -2.94241 104
177 2 -25.7789 2.923 -11.8487 -1.0793 -3.41438 0.177814 177
178 3 -24.6412 2.61829 -12.49 -5.53384 1.28599 1.75464 178
179 3 -25.9202 2.53138 -10.657 1.54674 -2.84309 3.53139 179
180 3 -26.6955 3.62133 -12.4972 -10.3361 -3.12232 6.82218 180
8 1 -25.0525 4.61047 -14.0751 -1.17334 -3.70664 -1.34003 8
41 2 -19.4654 7.12732 4.57353 -1.57784 -8.58399 -2.7923 41
42 3 -18.291 7.62215 4.12459 -4.285 0.876545 -1.29092 42
43 3 -19.9388 7.36658 5.71482 -1.13819 -0.827964 8.62582 43
44 3 -20.1082 6.26455 3.8263 -0.682336 5.13507 -1.77902 44
151 3 -22.9934 28.1184 19.0189 0.429166 -6.01675 -0.953335 151
149 2 -22.7041 29.1156 19.7698 -5.30802 1.06458 0.171073 149
150 3 -23.2671 29.2144 20.8967 4.62562 -2.41309 1.91177 150
174 3 -24.8417 29.3904 26.5999 -5.7032 8.23856 2.89089 174