ITEM: TIMESTEP
0
ITEM: NUMBER OF ATOMS
180
ITEM: BOX BOUNDS pp pp pp
-2.9849823217130805e+01 2.9849823217130805e+01
-2.9849823217130805e+01 2.9849823217130805e+01
-2.9849823217130805e+01 2.9849823217130805e+01
ITEM: ATOMS id type x y z vx vy vz id
112 3 -26.2177 -1.05153 -21.4129 -5.81659 4.18101 4.14566 112
121 2 -14.4051 -25.0482 -2.65399 -6.06992 -3.21005 4.37566 121
122 3 -13.2489 -24.9055 -2.20122 -0.228259 -0.0397482 -7.01334 122
123 3 -14.8792 -24.0933 -3.38904 -3.20436 1.22091 -2.05529 123
124 3 -15.1615 -26.068 -2.36815 -1.63348 4.1175 3.61725 124
69 2 -11.0579 -22.6573 -1.45292 -0.00192889 4.17592 0.565403 69
70 3 -11.0674 -23.5697 -0.554452 1.7227 -10.0914 3.42868 70
71 3 -10.3499 -22.8135 -2.54678 -0.923492 -2.26949 -2.73487 71
72 3 -11.7753 -21.615 -1.28368 2.55401 -2.93944 7.43293 72
28 1 -8.47222 -21.6783 -3.69888 5.83603 -1.32772 1.08203 28
18 1 -13.0251 -25.0148 0.158687 -5.05893 0.814764 -2.36549 18
35 1 -4.50655 -24.1552 14.3374 2.5996 -1.87583 3.11494 35
165 2 -3.37117 -27.572 14.636 0.872197 7.35951 0.443319 165
166 3 -3.97519 -26.4743 14.4182 -3.69088 4.6077 -3.12215 166
168 3 -2.41437 -27.957 13.8914 1.97342 -2.39675 -1.41636 168
114 3 -8.52386 -21.9343 14.4249 -2.71697 -3.48147 -0.996254 114
113 2 -7.22213 -21.8326 14.2025 3.27592 -10.5053 -1.69481 113
115 3 -6.66749 -20.7288 13.8878 -8.76582 -2.19857 -0.805464 115
116 3 -6.55677 -22.9662 14.2375 -0.600154 -6.31189 -6.74418 116
48 3 -26.202 -12.6196 12.4306 2.85811 -0.788561 0.922416 48
45 2 -26.6751 -11.9956 13.4743 -2.13143 -0.63223 -2.96463 45
47 3 -27.9513 -12.0027 13.72 2.87921 1.9558 -3.10148 47
46 3 -25.8491 -11.2799 14.228 -5.15704 -1.68721 -1.99133 46
67 3 -22.8076 -25.9891 21.2836 -3.34938 5.46571 3.60266 67
99 3 -19.6729 -28.7683 20.6088 3.77645 3.31675 0.285031 99
80 3 -20.6687 -27.326 18.1305 3.80375 1.54572 -7.76812 80
97 2 -19.0511 -28.0233 21.4472 -0.189732 -0.337445 -3.17743 97
98 3 -19.8055 -27.1103 22.0507 5.67426 5.09925 -2.78407 98
22 1 -18.5143 -24.3657 20.3204 0.953092 0.201734 -1.60455 22
152 3 -21.7938 -29.82 18.8878 -0.582096 3.48333 1.35693 152
26 1 -21.9762 -27.7429 20.2241 0.774059 -4.1175 -3.30828 26
77 2 -21.5002 -26.5457 17.6143 0.595438 -4.35474 -4.61838 77
29 1 -19.5512 -29.6157 18.1356 -1.97821 0.170565 5.88769 29
78 3 -21.3582 -26.0665 16.3989 -4.78453 2.63484 -1.58972 78
79 3 -22.627 -26.3172 18.254 -2.65436 -2.05623 2.13432 79
100 3 -17.8652 -28.2401 21.7824 5.2887 -7.87215 4.59063 100
36 1 -6.04052 -29.3947 15.9955 -0.964307 -4.55474 -6.04756 36
167 3 -3.66915 -28.2364 15.6946 -1.32578 -1.45511 -4.00542 167
96 3 -21.1182 -27.8838 24.8652 -3.43319 -1.00218 -3.09673 96
65 2 -22.8453 -25.4657 22.4592 2.30033 3.42207 1.46533 65
17 1 -22.1209 -28.3546 29.2242 -1.07761 1.96374 -1.19368 17
81 2 -23.771 -24.0597 27.5469 1.30555 -5.02467 5.38676 81
66 3 -22.5616 -24.2618 22.6298 4.74111 1.19058 0.42247 66
82 3 -23.8345 -25.0327 26.7623 2.4081 -0.197613 1.82593 82
68 3 -23.1614 -26.2328 23.4715 -3.91358 3.60948 5.67592 68
84 3 -23.6837 -24.2325 28.8084 -3.5312 -2.5144 -3.08968 84
117 2 -19.9522 -26.8337 27.2733 -4.94662 0.483879 -4.42881 117
118 3 -21.218 -26.6784 27.6384 1.70657 1.36487 3.0623 118
119 3 -19.2587 -27.8236 27.7607 -1.25504 -3.62626 -0.427288 119
120 3 -19.4405 -25.987 26.5112 3.62913 2.37851 -8.01574 120
75 3 -19.2237 -24.0607 22.6778 1.34717 -9.73664 -2.35738 75
173 2 -23.8451 -29.7871 26.4435 -2.16003 3.73761 1.42792 173
13 1 -22.935 -26.8728 25.7383 2.47727 -0.239882 -1.14791 13
93 2 -20.2611 -28.853 24.7675 -1.13984 6.92113 0.684198 93
94 3 -19.0175 -28.5261 24.6237 0.477717 1.31876 -7.23893 94
15 1 -19.5549 -26.0712 24.1865 -2.79744 0.935043 3.7676 15
175 3 -23.6886 -28.7636 27.1324 -2.51028 -1.32008 6.62946 175
128 3 -17.2001 -26.2822 24.2722 4.79317 -5.69348 -2.03866 128
34 1 -16.7309 -28.7114 24.1715 0.325808 0.144903 5.18675 34
125 2 -16.4337 -25.3158 24.6498 -6.62991 0.446346 10.1861 125
126 3 -15.3299 -25.112 23.9965 0.0109569 -2.26032 -0.453657 126
127 3 -16.7444 -24.7486 25.7738 -0.793938 -2.21315 3.09338 127
19 1 -24.3305 -21.26 25.5431 0.508314 -0.270395 -0.113903 19
83 3 -23.7925 -22.841 27.1278 1.81156 -0.717923 -0.185523 83
73 2 -19.1216 -23.2497 23.6546 7.2879 4.51403 -5.715 73
9 1 -18.3623 -23.8049 27.1261 -1.36869 3.50255 -0.488123 9
74 3 -19.4079 -23.6955 24.8457 1.00746 -1.96212 5.29989 74
76 3 -18.7322 -22.0402 23.4655 -3.58113 5.88829 0.0446886 76
24 1 -28.4924 2.2244 -22.4493 -3.69812 0.744731 -0.378832 24
89 2 -27.9007 4.89678 -23.2516 2.26219 7.81115 -1.72396 89
90 3 -27.3564 5.8059 -23.9758 3.18528 -4.43125 -0.154179 90
91 3 -28.9342 4.24451 -23.6853 0.619186 1.24296 1.33046 91
33 1 -20.4007 1.50567 -23.6859 -0.805132 -1.64154 3.5022 33
57 2 -22.8964 3.89895 -24.127 6.96178 3.50005 3.61811 57
58 3 -22.4249 2.88871 -23.5278 -1.03407 5.0076 -8.13195 58
59 3 -22.9424 5.04825 -23.5428 1.63695 -5.99124 -4.3823 59
60 3 -23.2932 3.86717 -25.3478 -1.79215 3.3436 -0.215407 60
132 3 -24.5165 10.785 -24.4774 2.69491 2.86343 -3.5316 132
129 2 -24.9967 11.7364 -25.2832 1.60949 -1.86998 -0.574281 129
2 1 -24.8385 9.46935 -22.7353 0.612621 3.22206 -1.21724 2
131 3 -24.4515 11.9007 -26.4442 -3.71726 -0.629177 3.61632 131
153 2 -26.8965 8.73294 -27.6226 -2.78683 3.10235 -0.347869 153
154 3 -27.9595 8.77741 -28.3361 -4.50999 6.15628 4.94016 154
11 1 -24.0875 7.00224 -27.2699 0.00525437 -4.3859 -0.116554 11
155 3 -25.7602 8.5157 -28.1901 1.35619 2.69428 3.91783 155
156 3 -26.9371 8.97499 -26.3564 -3.95037 -7.94906 1.34585 156
130 3 -25.9789 12.4494 -24.9153 -1.2452 3.52557 3.67226 130
164 3 -29.2613 5.61173 -18.4341 -0.196694 1.46543 9.16947 164
133 2 -26.5593 1.3108 -17.3978 1.69167 1.89619 -4.01313 133
134 3 -27.0921 2.09227 -18.2851 -1.92803 4.1105 -2.3916 134
135 3 -26.9901 1.39838 -16.1538 -3.1581 6.93839 -0.161842 135
136 3 -25.8389 0.35147 -17.6454 2.88939 -1.41799 1.93657 136
170 3 -24.0621 3.9105 -17.9744 -1.67155 -0.0377504 -0.113647 170
27 1 -27.7819 5.80491 -20.1799 -4.49483 -0.729651 -1.08883 27
92 3 -27.4051 4.60001 -22.1607 -1.76816 8.8748 -2.97959 92
109 2 -25.7044 0.0330957 -21.6948 -2.46622 3.50409 -1.69785 109
110 3 -24.4755 0.13013 -22.1204 -4.00503 2.77593 -3.33815 110
111 3 -26.4282 1.06892 -21.6536 0.391838 -1.08727 -2.34844 111
52 3 -19.9878 0.220438 -19.8281 -0.681383 7.14553 1.54121 52
20 1 -23.3555 2.05058 -21.4534 1.34361 -3.08658 -2.2629 20
32 1 -23.6192 0.024322 -17.941 3.36085 3.94609 -4.53561 32
49 2 -21.0835 0.769073 -20.2054 0.728802 1.16357 -0.865417 49
50 3 -22.1033 0.881721 -19.4834 1.58542 2.61237 6.96017 50
51 3 -21.1075 1.26567 -21.3799 -5.15071 3.54717 1.68676 51
169 2 -23.1861 4.55333 -17.311 2.02614 1.9997 -3.26551 169
171 3 -22.4623 5.39914 -17.8827 1.40433 5.98655 -4.53936 171
172 3 -23.1195 4.2863 -16.0275 0.001677 3.9286 -3.40022 172
101 2 -26.982 10.126 -19.7494 1.13676 5.83137 6.09304 101
102 3 -26.1496 9.80908 -18.8186 1.57552 2.08862 -2.44341 102
103 3 -27.9321 11.0331 -19.5378 2.16733 1.69862 -1.904 103
104 3 -26.8834 9.59834 -20.8655 -3.75849 5.39418 3.30368 104
177 2 -25.2706 3.31428 -11.8724 -0.397104 4.34895 -6.86306 177
178 3 -24.3941 2.92591 -12.8515 1.41222 3.60828 -1.6745 178
179 3 -25.381 2.76112 -10.7407 -1.97975 -1.27833 -5.47585 179
180 3 -26.0436 4.26329 -12.3098 -2.03009 -6.00033 2.60367 180
23 1 -29.7467 2.22846 -8.53488 3.2851 1.30417 -5.54596 23
8 1 -24.5302 5.00605 -14.101 -1.89762 -0.934327 0.867927 8
41 2 -19.418 7.54055 4.46145 3.49256 0.882062 -0.883314 41
42 3 -18.1303 7.61477 4.58857 -0.658846 -4.29904 -5.23764 42
43 3 -20.1484 8.48911 5.01796 -0.448465 0.462213 -4.29931 43
44 3 -19.9247 6.53479 3.89939 -3.74863 2.90385 -2.60572 44
142 3 -29.6459 15.9869 22.1177 7.0287 -5.47467 0.614168 142
143 3 -29.6805 16.2091 19.8911 1.43596 1.90568 -3.61143 143
151 3 -22.6284 27.83 19.1485 4.13008 3.5458 -2.79789 151
149 2 -22.4397 29.0098 19.615 4.51341 1.74317 -1.37038 149
150 3 -22.8415 29.2561 20.8044 4.60426 1.66806 0.443124 150
174 3 -24.5312 28.9168 26.971 -0.846505 1.64121 1.59683 174
176 3 -23.4505 29.8228 25.2041 -4.39066 3.4501 1.79249 176
3 1 -22.4173 29.1814 23.2705 1.57558 -0.607863 1.03893 3
95 3 -20.6458 29.6501 24.8353 -1.21034 1.70229 4.34216 95
1 1 5.07018 -26.3962 6.82925 1.6086 1.37 1.29833 1
53 2 5.13803 -27.838 1.73438 0.683704 -5.33925 6.31951 53
54 3 4.37292 -28.2867 0.812283 -0.891024 0.703111 -0.854758 54
55 3 4.7852 -27.8521 2.95184 2.17627 6.34413 2.66388 55
21 1 8.17938 -28.9886 1.37892 -1.42353 0.407223 -0.882679 21
56 3 6.30567 -27.1854 1.4843 -3.94844 3.00288 4.38098 56
138 3 12.8729 -28.8545 7.10271 -0.483005 5.52021 2.3987 138
145 2 2.66476 -25.3613 8.56218 -2.8006 0.678802 -1.7052 145
146 3 2.87891 -26.1543 7.58753 2.17381 -0.330102 1.04186 146
147 3 2.66142 -25.7934 9.79108 -1.51294 0.554229 -4.71735 147
148 3 2.27783 -24.136 8.29554 -3.55784 8.4546 -3.43383 148
6 1 1.97268 -27.7836 10.7892 -3.39983 -3.32092 -0.462722 6
86 3 4.02935 -28.9428 10.5144 -7.10613 -3.42659 -3.06707 86
140 3 11.7054 -28.6905 9.08828 6.4675 -4.54244 4.69343 140
137 2 12.0362 -29.3409 7.94165 -3.26395 6.45989 -3.07938 137
14 1 12.4754 -26.9076 10.3886 -2.49935 -2.58611 1.27677 14
31 1 29.6219 5.90401 -25.0786 -2.95042 3.57209 4.0709 31
16 1 29.7972 1.95098 -15.4591 1.17946 0.304936 0.367378 16
161 2 29.2627 5.87776 -18.0757 -1.30213 1.78062 -5.3054 161
163 3 28.2459 5.79802 -18.9103 -0.424798 0.618841 5.24135 163
162 3 29.0183 6.32314 -16.864 5.46233 -2.43274 -3.23966 162
30 1 29.4221 11.5486 -20.3431 -2.13585 -0.311491 -0.61928 30
4 1 22.1911 26.9224 -15.8417 1.47984 4.32734 -3.62799 4
37 2 27.1375 2.44044 -10.7911 2.8174 -6.43098 -1.92549 37
38 3 26.2928 1.707 -11.3484 2.58203 -2.64973 -1.5413 38
39 3 27.2026 3.71867 -11.1417 2.07638 5.25167 -2.05845 39
40 3 28.0354 1.9414 -9.98 -0.558239 2.9842 0.466847 40
64 3 23.7766 26.5629 -11.9738 6.07174 -5.96366 -1.45386 64
62 3 23.3856 27.5251 -13.9375 2.68179 1.5057 -0.174045 62
61 2 23.9524 27.532 -12.8326 2.13573 -3.63008 2.69472 61
7 1 25.0464 25.487 -10.1903 1.46385 1.35739 -0.494833 7
63 3 24.7171 28.5087 -12.4489 -0.957564 2.40661 5.9212 63
25 1 13.3492 23.0389 4.28401 -0.300551 -3.05381 -1.69395 25
158 3 13.5296 26.9022 2.16409 -4.72555 -2.88029 1.83775 158
160 3 13.0572 25.0351 0.950594 5.01595 -4.69721 -3.37524 160
105 2 12.869 25.1646 7.1839 6.07258 2.34174 3.08812 105
106 3 12.5564 24.7567 5.98358 1.68728 0.624469 2.37121 106
12 1 12.7157 27.0429 4.5759 -3.84392 0.735761 -1.13965 12
157 2 13.2594 25.6412 2.07793 -4.23214 -1.64488 0.71855 157
159 3 13.2948 24.9786 3.14063 -1.20034 -2.12572 3.20038 159
85 2 4.45628 29.6981 9.85085 -4.03025 -2.7578 2.46437 85
87 3 5.44301 29.7367 8.99884 9.31793 -4.09402 -2.08877 87
88 3 3.94665 28.5241 10.1177 -4.25084 2.80005 3.08397 88
5 1 11.3583 27.5231 9.30782 5.02048 5.14937 3.33899 5
139 3 11.55 29.1773 7.71747 1.04876 -6.46231 2.94678 139
107 3 12.5372 26.365 7.54572 -3.29357 -9.58325 -3.49086 107
108 3 13.5295 24.4268 8.06136 -0.416572 5.12632 -4.74768 108
144 3 28.7046 14.7261 20.8247 -6.41694 -0.396186 -6.93203 144
10 1 28.1434 12.909 22.0663 -2.07827 1.6336 -3.35899 10
141 2 29.6179 15.6711 20.994 3.8512 2.19169 0.184227 141
ITEM: TIMESTEP
100
ITEM: NUMBER OF ATOMS
180
ITEM: BOX BOUNDS pp pp pp
-2.9849823217130805e+01 2.9849823217130805e+01
-2.9849823217130805e+01 2.9849823217130805e+01
-2.9849823217130805e+01 2.9849823217130805e+01
ITEM: ATOMS id type x y z vx vy vz id
112 3 -26.4875 -0.734515 -21.2646 -4.29227 -5.91332 3.39274 112
121 2 -14.4456 -24.741 -2.7193 1.56891 2.86673 -3.80975 121
122 3 -13.2669 -24.6128 -2.23826 -5.4351 2.79028 5.60575 122
123 3 -14.8155 -23.9783 -3.71114 0.124422 -0.117825 -6.01927 123
124 3 -15.2679 -25.5312 -2.14749 -1.19971 2.12533 -4.53234 124
69 2 -10.9368 -22.7431 -1.3853 3.53715 0.095718 0.590908 69
70 3 -10.8553 -23.8064 -0.553955 6.40084 -0.763132 7.60912 70
71 3 -10.24 -22.8079 -2.48567 3.83743 -4.30127 3.05155 71
72 3 -11.6465 -21.7507 -1.04364 5.50818 -1.22728 -4.00928 72
28 1 -8.44223 -21.8376 -3.54825 -2.17488 -4.35168 0.230581 28
18 1 -12.8634 -25.0317 0.0507585 5.00991 -0.999883 -0.322406 18
35 1 -4.39515 -24.1515 14.303 1.92092 0.139503 -0.266128 35
165 2 -3.55654 -27.6111 14.5903 2.30821 -5.59401 -1.58589 165
166 3 -4.23459 -26.5752 14.1807 -1.59514 2.24585 1.37472 166
168 3 -2.40666 -28.0528 14.0555 1.15933 -7.10743 -1.88698 168
114 3 -8.53217 -22.2174 14.1934 6.58527 7.51574 -2.18849 114
113 2 -7.23042 -22.0974 14.1582 -4.79439 -8.35123 0.405636 113
115 3 -6.70522 -20.9925 14.4939 -3.28183 0.795628 3.31487 115
116 3 -6.52123 -23.0738 13.7582 5.1992 3.46573 -2.95972 116
48 3 -26.3911 -12.4297 12.4165 -3.14543 4.18168 3.57981 48
45 2 -26.7591 -11.8976 13.539 2.40993 0.33307 8.73179 45
47 3 -27.9685 -11.8834 13.8757 0.989383 0.609382 3.26004 47
46 3 -25.8788 -11.3061 14.2676 -5.007 2.24028 -1.47388 46
67 3 -23.0436 -25.9398 21.4418 -4.92733 1.03813 3.65827 67
99 3 -19.735 -28.5527 20.4149 0.247425 -0.0335042 -0.783291 99
80 3 -20.3334 -27.3506 17.6919 2.96278 -3.66045 0.0335662 80
97 2 -19.2577 -27.907 21.4004 -5.66458 6.81341 -0.0179532 97
98 3 -19.9143 -26.9341 21.877 -8.45136 -0.0169273 -4.18134 98
22 1 -18.7635 -24.223 20.36 1.735 1.11741 1.14147 22
152 3 -21.7451 -29.732 19.0081 3.80706 -2.42315 11.6908 152
26 1 -21.8777 -27.558 20.3677 2.4712 -1.10714 2.39649 26
77 2 -21.2504 -26.4827 17.51 -1.70511 14.4353 -2.10073 77
29 1 -19.4449 -29.6452 18.209 0.699636 2.1224 -2.11899 29
78 3 -21.3964 -25.8721 16.3956 -3.51427 -3.89372 -3.44937 78
79 3 -22.0852 -26.1515 18.4851 8.86473 6.25978 2.12918 79
100 3 -18.1272 -28.3537 21.9746 -1.48271 1.68199 4.83107 100
36 1 -6.11932 -29.4422 15.8262 1.49766 6.28465 4.5595 36
167 3 -4.01374 -28.2566 15.6107 -5.29284 -4.66973 2.38705 167
176 3 -23.4609 -29.7098 24.9724 3.0889 4.99019 -0.727069 176
96 3 -21.0797 -27.8244 24.6365 -0.0294725 0.302567 6.69801 96
65 2 -22.9763 -25.371 22.5923 -1.23007 1.53544 -1.00831 65
17 1 -21.9191 -28.4973 29.2275 4.01398 -0.143555 0.38895 17
81 2 -23.9241 -23.9595 27.5991 -6.62081 4.29885 8.0936 81
66 3 -22.5444 -24.1627 22.6348 3.95027 6.24241 -2.7119 66
82 3 -24.1141 -24.9889 26.8513 5.15281 -3.7771 -4.71391 82
68 3 -23.4483 -25.9327 23.6688 -2.98433 -0.129636 -2.41743 68
84 3 -23.542 -24.0945 28.804 1.42645 0.0791721 0.54653 84
117 2 -20.0495 -26.9547 27.4635 -10.0922 -3.77907 4.0596 117
118 3 -21.327 -26.9693 27.5072 2.52387 -0.3533 2.84194 118
119 3 -19.4503 -27.8943 28.1351 -2.1517 3.52047 3.56216 119
120 3 -19.3525 -26.086 26.7561 2.91176 -1.37631 -5.49803 120
75 3 -18.9107 -23.8863 22.6314 -3.97353 3.32601 -5.58433 75
173 2 -23.9257 -29.7844 26.1627 -5.39241 -1.79351 -3.92035 173
13 1 -22.9526 -26.888 25.7649 0.224229 0.117443 -1.67412 13
93 2 -20.194 -28.7151 24.7232 6.21124 7.7362 3.88201 93
94 3 -18.9489 -28.3608 24.8306 -1.27346 3.74159 3.6547 94
15 1 -19.3006 -26.0945 24.1046 -1.39165 -1.4929 1.25299 15
175 3 -23.7537 -28.8165 26.9452 8.70743 6.43368 -4.72071 175
128 3 -16.9823 -26.2696 24.0142 3.36716 -2.11056 -5.94592 128
34 1 -16.7976 -28.711 24.0213 -3.78346 -1.083 -0.0359049 34
125 2 -16.3911 -25.3299 24.6897 -6.16878 4.43532 -6.20793 125
126 3 -15.3129 -24.8628 24.0608 2.20419 0.800531 6.22967 126
127 3 -16.7021 -25.1104 25.8945 6.74349 -1.40745 -1.70543 127
19 1 -24.2633 -21.1474 25.3815 1.05029 3.30228 -2.02173 19
83 3 -24.1255 -22.759 27.1259 -1.62663 2.68337 -4.02615 83
73 2 -18.8822 -23.1776 23.7174 2.55181 -1.40282 0.786428 73
9 1 -18.5606 -23.952 27.1095 4.56411 2.99239 -3.82921 9
74 3 -19.1741 -23.8304 24.8588 2.88701 2.99044 -1.54472 74
76 3 -18.8213 -21.8742 23.6693 1.74321 -2.05157 4.1849 76
24 1 -28.572 2.44455 -22.5765 2.48715 1.89142 -0.0789852 24
89 2 -27.8236 5.08138 -23.4163 -5.65658 3.4864 -0.523697 89
90 3 -27.5035 5.98454 -24.2182 -1.56784 2.78668 2.20396 90
91 3 -28.9652 4.52387 -23.5918 -8.82205 0.575107 -5.56523 91
33 1 -20.4575 1.3534 -23.7993 -2.93192 0.847318 -3.4549 33
57 2 -22.824 4.09434 -24.0197 -3.33938 9.13272 -2.98362 57
58 3 -22.427 3.08738 -23.2859 7.793 3.03899 3.65019 58
59 3 -23.1685 5.20281 -23.5579 -4.29793 6.4184 6.11376 59
60 3 -22.8108 3.91309 -25.2941 2.10322 2.76602 -1.47257 60
132 3 -24.4108 11.0882 -24.5424 -7.41338 5.47936 -1.88105 132
129 2 -24.8204 11.8971 -25.4607 7.95173 -0.515615 3.46396 129
2 1 -25.0641 9.78713 -22.4603 -1.30774 2.72146 -0.225677 2
131 3 -24.2847 11.9318 -26.5793 2.5447 -7.07068 3.4737 131
153 2 -26.9239 8.56006 -27.6642 0.150758 -0.302503 0.615038 153
154 3 -28.0746 8.74583 -28.2214 -4.33442 4.38105 0.0878028 154
11 1 -23.9964 7.01778 -27.2856 2.42791 2.73865 1.46549 11
155 3 -25.9012 8.10638 -28.3735 1.6502 -2.38314 3.15258 155
156 3 -26.7182 8.92943 -26.4773 4.07236 -3.89205 -1.10885 156
130 3 -25.8599 12.6583 -25.2287 -2.8985 -2.14687 -0.27597 130
16 1 -29.5866 2.02937 -15.4286 0.75311 -0.00995686 -3.65747 16
164 3 -29.5349 5.70673 -18.3241 -5.36731 3.14467 -0.652785 164
133 2 -26.5018 1.44185 -17.1347 -6.20944 2.85388 6.9655 133
134 3 -26.9006 2.08414 -18.1843 -0.850672 -1.48315 5.96015 134
135 3 -27.1629 1.62698 -16.0133 -2.40353 2.51174 -0.636011 135
136 3 -25.5481 0.589484 -17.1752 6.74244 0.893354 -2.59106 136
170 3 -23.873 4.07325 -18.1071 -4.77557 1.00802 -7.09813 170
27 1 -27.9027 5.87676 -20.0768 0.470972 -0.660975 0.586909 27
92 3 -27.168 4.79915 -22.3145 -3.99373 -3.41246 5.072 92
109 2 -25.9972 0.333525 -21.8224 -1.18517 4.25742 7.63745 109
110 3 -24.8939 0.297249 -22.5308 -3.50075 5.19306 0.770024 110
111 3 -26.5851 1.44105 -21.6741 -2.01793 6.20566 -2.65381 111
52 3 -19.989 0.583907 -19.8987 -2.5047 1.60498 4.11856 52
20 1 -23.4156 2.09028 -21.4889 -2.44261 0.128076 1.42583 20
32 1 -23.4943 0.209199 -17.9524 -4.84483 1.53994 4.75983 32
49 2 -21.0614 0.944877 -20.414 -0.968848 -0.97058 -5.40418 49
50 3 -22.1346 1.14975 -19.6845 -7.07437 -0.730806 1.79905 50
51 3 -21.1413 1.05911 -21.6871 -5.6444 -3.38072 -8.09937 51
169 2 -23.1442 4.75195 -17.2983 -1.42503 -4.71258 1.7171 169
171 3 -22.3156 5.6425 -17.7593 1.50856 5.09901 3.61752 171
172 3 -23.2517 4.53396 -16.0348 -0.990281 3.95575 -5.94991 172
101 2 -27.0072 10.1438 -19.6473 -2.64759 -4.83088 1.75744 101
102 3 -26.3751 9.85808 -18.546 -1.59522 0.403423 0.761707 102
103 3 -28.1193 10.768 -19.7141 2.95731 -0.543519 2.87416 103
104 3 -26.4637 9.76975 -20.7226 -1.17507 -2.16749 -6.26658 104
177 2 -25.1775 3.21395 -12.2189 10.2614 -0.695029 -16.0712 177
178 3 -24.2268 2.91616 -12.9788 0.384121 -3.83395 0.408195 178
179 3 -25.0826 2.94602 -10.9112 1.39268 0.578481 -1.99401 179
180 3 -26.0925 3.93572 -12.6445 1.80396 0.311939 4.04196 180
23 1 -29.7856 2.41065 -8.75253 1.47621 -2.21712 -4.56266 23
8 1 -24.6245 5.12946 -14.1026 -1.45802 3.06811 0.308113 8
41 2 -19.2006 7.60138 4.16937 4.76472 11.2782 -5.29484 41
42 3 -17.9831 7.76121 3.94828 3.05045 0.665743 -1.74224 42
43 3 -19.8835 8.45255 4.89451 2.01429 -7.93019 -2.30909 43
44 3 -19.8367 6.52237 3.80112 0.0887946 -1.30404 -3.23062 44
142 3 -29.7738 16.0996 22.0365 -7.85727 -0.389188 2.8574 142
143 3 -29.6649 16.1324 19.7827 -0.0448786 -2.38086 -0.269451 143
151 3 -22.922 28.072 19.23 -7.02045 0.877108 0.0725883 151
149 2 -22.3509 29.0946 19.7512 4.68244 -5.94704 0.0670565 149
150 3 -22.4051 29.3034 21.0062 4.68863 3.16005 5.94106 150
174 3 -24.5783 28.8985 26.6121 5.26444 0.0259975 -9.06721 174
3 1 -22.2327 28.8452 23.2563 -2.53369 2.70942 -0.893513 3
95 3 -20.5145 29.7151 24.6149 2.88281 2.29074 2.62815 95
1 1 5.18526 -26.4547 6.72204 2.70759 -0.422315 -2.14172 1
53 2 5.13014 -27.7711 1.7924 2.56025 -5.78958 2.64034 53
54 3 4.34841 -28.032 0.74947 -2.511 4.41717 -7.89193 54
55 3 4.63158 -27.7246 2.97682 1.43017 2.06203 -1.97687 55
21 1 8.11318 -29.1394 1.49943 -1.52387 -1.56957 -1.52051 21
56 3 6.35346 -27.557 1.63105 -2.4677 -2.02231 3.74931 56
138 3 12.6205 -28.787 7.17866 -2.79492 0.5207 5.51842 138
145 2 2.48603 -25.2192 8.35066 -2.16193 6.91542 -0.561354 145
146 3 2.83854 -25.9464 7.35469 -9.12675 -3.20124 -0.8549 146
147 3 2.38403 -25.8462 9.46539 1.9607 -3.56562 -0.0625705 147
148 3 2.06173 -23.946 8.19828 -7.26978 -1.38136 -3.68792 148
6 1 2.08326 -27.7718 10.5848 2.77537 -0.00039383 -0.229724 6
86 3 3.99124 -28.9693 10.1583 2.37763 -3.35937 -1.95803 86
140 3 11.7143 -28.6987 9.20402 -3.75908 1.31931 -6.93238 140
137 2 11.8565 -29.2665 8.04675 -11.9503 3.86591 3.42108 137
14 1 12.4 -26.6371 10.0618 3.3173 -1.64668 -1.76902 14
31 1 29.4472 5.83613 -25.2024 -1.74628 -0.210423 -4.07549 31
161 2 28.9024 5.90169 -18.0294 -6.125 7.04848 -3.08599 161
163 3 27.9825 5.92427 -18.9083 -2.63206 0.529877 -1.49075 163
162 3 28.6013 6.05418 -16.8241 -2.61422 3.52649 -1.28161 162
30 1 29.3573 11.304 -20.3023 1.44621 -1.74426 -2.39951 30
4 1 22.207 27.1332 -16.0443 -0.0491593 1.17786 -4.73646 4
37 2 27.4071 2.29425 -10.9847 0.716709 9.89774 0.925613 37
38 3 26.5633 1.57381 -11.5678 -2.86495 -5.75896 1.1087 38
39 3 27.4432 3.63555 -11.2122 1.17167 -2.39239 1.14646 39
40 3 28.2449 1.78372 -10.1434 -2.48461 -7.29149 -4.58406 40
64 3 23.8278 26.6306 -12.4029 0.0363188 3.22663 1.01435 64
62 3 23.4318 27.7639 -14.2958 -0.0604464 7.78711 -6.20504 62
61 2 23.9787 27.6792 -13.0918 3.33046 2.16339 6.17551 61
7 1 24.9197 25.5642 -10.1755 -0.255049 0.276197 1.14249 7
63 3 24.5173 28.7456 -12.5602 -2.46339 6.59847 -7.15238 63
25 1 13.482 22.9833 4.40652 1.133 2.71466 1.27013 25
158 3 13.5499 26.7157 1.64937 -0.806255 -4.86325 -0.0417292 158
160 3 13.3968 24.6322 0.845809 3.2099 -8.64966 -4.51172 160
105 2 12.8367 25.2323 6.90821 2.83383 4.25093 0.58386 105
106 3 12.7138 24.6175 5.75804 2.78261 -3.23695 8.15358 106
12 1 12.4725 26.8255 4.53215 -1.84849 -0.297535 -1.69985 12
157 2 13.3126 25.4946 1.82762 -4.36578 0.560181 -3.3879 157
159 3 12.9563 25.0773 3.02003 -0.119118 3.16441 3.38449 159
85 2 4.61373 29.6568 9.78197 0.731629 -1.73732 -7.59411 85
87 3 5.66707 29.6849 8.93973 -1.15876 4.68502 -4.84312 87
88 3 4.16509 28.5858 10.1821 -6.6129 10.4853 0.382954 88
5 1 11.0992 27.7912 9.47598 -2.99377 -0.368351 2.05582 5
139 3 11.1362 29.3841 7.75086 2.6165 1.30999 3.66591 139
107 3 12.3815 26.3565 6.94628 -3.78514 -4.40388 -1.75345 107
108 3 13.5519 24.7183 7.78678 -7.96778 -1.19853 5.37955 108
144 3 28.7361 14.5941 20.8539 7.35363 -2.28219 5.2247 144
10 1 28.2401 12.7001 22.092 3.35137 -5.61086 -1.63022 10
141 2 29.6062 15.5844 20.8926 -6.11328 -8.8062 -3.53278 141
