ITEM: TIMESTEP
0
ITEM: NUMBER OF ATOMS
180
ITEM: BOX BOUNDS pp pp pp
-2.9849823217130805e+01 2.9849823217130805e+01
-2.9849823217130805e+01 2.9849823217130805e+01
-2.9849823217130805e+01 2.9849823217130805e+01
ITEM: ATOMS id type x y z vx vy vz id
112 3 -26.4875 -0.734515 -21.2646 -4.29227 -5.91332 3.39274 112
121 2 -14.4456 -24.741 -2.7193 1.56891 2.86673 -3.80975 121
122 3 -13.2669 -24.6128 -2.23826 -5.4351 2.79028 5.60575 122
123 3 -14.8155 -23.9783 -3.71114 0.124422 -0.117825 -6.01927 123
124 3 -15.2679 -25.5312 -2.14749 -1.19971 2.12533 -4.53234 124
69 2 -10.9368 -22.7431 -1.3853 3.53715 0.095718 0.590908 69
70 3 -10.8553 -23.8064 -0.553955 6.40084 -0.763132 7.60912 70
71 3 -10.24 -22.8079 -2.48567 3.83743 -4.30127 3.05155 71
72 3 -11.6465 -21.7507 -1.04364 5.50818 -1.22728 -4.00928 72
28 1 -8.44223 -21.8376 -3.54825 -2.17488 -4.35168 0.230581 28
18 1 -12.8634 -25.0317 0.0507585 5.00991 -0.999883 -0.322406 18
35 1 -4.39515 -24.1515 14.303 1.92092 0.139503 -0.266128 35
165 2 -3.55654 -27.6111 14.5903 2.30821 -5.59401 -1.58589 165
166 3 -4.23459 -26.5752 14.1807 -1.59514 2.24585 1.37472 166
168 3 -2.40666 -28.0528 14.0555 1.15933 -7.10743 -1.88698 168
114 3 -8.53217 -22.2174 14.1934 6.58527 7.51574 -2.18849 114
113 2 -7.23042 -22.0974 14.1582 -4.79439 -8.35123 0.405636 113
115 3 -6.70522 -20.9925 14.4939 -3.28183 0.795628 3.31487 115
116 3 -6.52123 -23.0738 13.7582 5.1992 3.46573 -2.95972 116
48 3 -26.3911 -12.4297 12.4165 -3.14543 4.18168 3.57981 48
45 2 -26.7591 -11.8976 13.539 2.40993 0.33307 8.73179 45
46 3 -25.8788 -11.3061 14.2676 -5.007 2.24028 -1.47388 46
47 3 -27.9685 -11.8834 13.8757 0.989383 0.609382 3.26004 47
67 3 -23.0436 -25.9398 21.4418 -4.92733 1.03813 3.65827 67
99 3 -19.735 -28.5527 20.4149 0.247425 -0.0335042 -0.783291 99
80 3 -20.3334 -27.3506 17.6919 2.96278 -3.66045 0.0335662 80
97 2 -19.2577 -27.907 21.4004 -5.66458 6.81341 -0.0179532 97
98 3 -19.9143 -26.9341 21.877 -8.45136 -0.0169273 -4.18134 98
100 3 -18.1272 -28.3537 21.9746 -1.48271 1.68199 4.83107 100
22 1 -18.7635 -24.223 20.36 1.735 1.11741 1.14147 22
152 3 -21.7451 -29.732 19.0081 3.80706 -2.42315 11.6908 152
26 1 -21.8777 -27.558 20.3677 2.4712 -1.10714 2.39649 26
77 2 -21.2504 -26.4827 17.51 -1.70511 14.4353 -2.10073 77
29 1 -19.4449 -29.6452 18.209 0.699636 2.1224 -2.11899 29
78 3 -21.3964 -25.8721 16.3956 -3.51427 -3.89372 -3.44937 78
79 3 -22.0852 -26.1515 18.4851 8.86473 6.25978 2.12918 79
36 1 -6.11932 -29.4422 15.8262 1.49766 6.28465 4.5595 36
167 3 -4.01374 -28.2566 15.6107 -5.29284 -4.66973 2.38705 167
81 2 -23.9241 -23.9595 27.5991 -6.62081 4.29885 8.0936 81
82 3 -24.1141 -24.9889 26.8513 5.15281 -3.7771 -4.71391 82
173 2 -23.9257 -29.7844 26.1627 -5.39241 -1.79351 -3.92035 173
176 3 -23.4609 -29.7098 24.9724 3.0889 4.99019 -0.727069 176
96 3 -21.0797 -27.8244 24.6365 -0.0294725 0.302567 6.69801 96
65 2 -22.9763 -25.371 22.5923 -1.23007 1.53544 -1.00831 65
17 1 -21.9191 -28.4973 29.2275 4.01398 -0.143555 0.38895 17
66 3 -22.5444 -24.1627 22.6348 3.95027 6.24241 -2.7119 66
68 3 -23.4483 -25.9327 23.6688 -2.98433 -0.129636 -2.41743 68
84 3 -23.542 -24.0945 28.804 1.42645 0.0791721 0.54653 84
117 2 -20.0495 -26.9547 27.4635 -10.0922 -3.77907 4.0596 117
118 3 -21.327 -26.9693 27.5072 2.52387 -0.3533 2.84194 118
119 3 -19.4503 -27.8943 28.1351 -2.1517 3.52047 3.56216 119
120 3 -19.3525 -26.086 26.7561 2.91176 -1.37631 -5.49803 120
9 1 -18.5606 -23.952 27.1095 4.56411 2.99239 -3.82921 9
75 3 -18.9107 -23.8863 22.6314 -3.97353 3.32601 -5.58433 75
13 1 -22.9526 -26.888 25.7649 0.224229 0.117443 -1.67412 13
93 2 -20.194 -28.7151 24.7232 6.21124 7.7362 3.88201 93
94 3 -18.9489 -28.3608 24.8306 -1.27346 3.74159 3.6547 94
15 1 -19.3006 -26.0945 24.1046 -1.39165 -1.4929 1.25299 15
175 3 -23.7537 -28.8165 26.9452 8.70743 6.43368 -4.72071 175
128 3 -16.9823 -26.2696 24.0142 3.36716 -2.11056 -5.94592 128
34 1 -16.7976 -28.711 24.0213 -3.78346 -1.083 -0.0359049 34
125 2 -16.3911 -25.3299 24.6897 -6.16878 4.43532 -6.20793 125
126 3 -15.3129 -24.8628 24.0608 2.20419 0.800531 6.22967 126
127 3 -16.7021 -25.1104 25.8945 6.74349 -1.40745 -1.70543 127
83 3 -24.1255 -22.759 27.1259 -1.62663 2.68337 -4.02615 83
19 1 -24.2633 -21.1474 25.3815 1.05029 3.30228 -2.02173 19
73 2 -18.8822 -23.1776 23.7174 2.55181 -1.40282 0.786428 73
74 3 -19.1741 -23.8304 24.8588 2.88701 2.99044 -1.54472 74
76 3 -18.8213 -21.8742 23.6693 1.74321 -2.05157 4.1849 76
24 1 -28.572 2.44455 -22.5765 2.48715 1.89142 -0.0789852 24
89 2 -27.8236 5.08138 -23.4163 -5.65658 3.4864 -0.523697 89
91 3 -28.9652 4.52387 -23.5918 -8.82205 0.575107 -5.56523 91
110 3 -24.8939 0.297249 -22.5308 -3.50075 5.19306 0.770024 110
33 1 -20.4575 1.3534 -23.7993 -2.93192 0.847318 -3.4549 33
57 2 -22.824 4.09434 -24.0197 -3.33938 9.13272 -2.98362 57
58 3 -22.427 3.08738 -23.2859 7.793 3.03899 3.65019 58
59 3 -23.1685 5.20281 -23.5579 -4.29793 6.4184 6.11376 59
60 3 -22.8108 3.91309 -25.2941 2.10322 2.76602 -1.47257 60
132 3 -24.4108 11.0882 -24.5424 -7.41338 5.47936 -1.88105 132
129 2 -24.8204 11.8971 -25.4607 7.95173 -0.515615 3.46396 129
2 1 -25.0641 9.78713 -22.4603 -1.30774 2.72146 -0.225677 2
131 3 -24.2847 11.9318 -26.5793 2.5447 -7.07068 3.4737 131
153 2 -26.9239 8.56006 -27.6642 0.150758 -0.302503 0.615038 153
154 3 -28.0746 8.74583 -28.2214 -4.33442 4.38105 0.0878028 154
90 3 -27.5035 5.98454 -24.2182 -1.56784 2.78668 2.20396 90
11 1 -23.9964 7.01778 -27.2856 2.42791 2.73865 1.46549 11
155 3 -25.9012 8.10638 -28.3735 1.6502 -2.38314 3.15258 155
156 3 -26.7182 8.92943 -26.4773 4.07236 -3.89205 -1.10885 156
130 3 -25.8599 12.6583 -25.2287 -2.8985 -2.14687 -0.27597 130
164 3 -29.5349 5.70673 -18.3241 -5.36731 3.14467 -0.652785 164
16 1 -29.5866 2.02937 -15.4286 0.75311 -0.00995686 -3.65747 16
133 2 -26.5018 1.44185 -17.1347 -6.20944 2.85388 6.9655 133
134 3 -26.9006 2.08414 -18.1843 -0.850672 -1.48315 5.96015 134
135 3 -27.1629 1.62698 -16.0133 -2.40353 2.51174 -0.636011 135
136 3 -25.5481 0.589484 -17.1752 6.74244 0.893354 -2.59106 136
27 1 -27.9027 5.87676 -20.0768 0.470972 -0.660975 0.586909 27
92 3 -27.168 4.79915 -22.3145 -3.99373 -3.41246 5.072 92
109 2 -25.9972 0.333525 -21.8224 -1.18517 4.25742 7.63745 109
111 3 -26.5851 1.44105 -21.6741 -2.01793 6.20566 -2.65381 111
52 3 -19.989 0.583907 -19.8987 -2.5047 1.60498 4.11856 52
20 1 -23.4156 2.09028 -21.4889 -2.44261 0.128076 1.42583 20
32 1 -23.4943 0.209199 -17.9524 -4.84483 1.53994 4.75983 32
49 2 -21.0614 0.944877 -20.414 -0.968848 -0.97058 -5.40418 49
50 3 -22.1346 1.14975 -19.6845 -7.07437 -0.730806 1.79905 50
51 3 -21.1413 1.05911 -21.6871 -5.6444 -3.38072 -8.09937 51
169 2 -23.1442 4.75195 -17.2983 -1.42503 -4.71258 1.7171 169
170 3 -23.873 4.07325 -18.1071 -4.77557 1.00802 -7.09813 170
171 3 -22.3156 5.6425 -17.7593 1.50856 5.09901 3.61752 171
172 3 -23.2517 4.53396 -16.0348 -0.990281 3.95575 -5.94991 172
101 2 -27.0072 10.1438 -19.6473 -2.64759 -4.83088 1.75744 101
102 3 -26.3751 9.85808 -18.546 -1.59522 0.403423 0.761707 102
103 3 -28.1193 10.768 -19.7141 2.95731 -0.543519 2.87416 103
104 3 -26.4637 9.76975 -20.7226 -1.17507 -2.16749 -6.26658 104
177 2 -25.1775 3.21395 -12.2189 10.2614 -0.695029 -16.0712 177
178 3 -24.2268 2.91616 -12.9788 0.384121 -3.83395 0.408195 178
179 3 -25.0826 2.94602 -10.9112 1.39268 0.578481 -1.99401 179
180 3 -26.0925 3.93572 -12.6445 1.80396 0.311939 4.04196 180
23 1 -29.7856 2.41065 -8.75253 1.47621 -2.21712 -4.56266 23
8 1 -24.6245 5.12946 -14.1026 -1.45802 3.06811 0.308113 8
41 2 -19.2006 7.60138 4.16937 4.76472 11.2782 -5.29484 41
42 3 -17.9831 7.76121 3.94828 3.05045 0.665743 -1.74224 42
43 3 -19.8835 8.45255 4.89451 2.01429 -7.93019 -2.30909 43
44 3 -19.8367 6.52237 3.80112 0.0887946 -1.30404 -3.23062 44
142 3 -29.7738 16.0996 22.0365 -7.85727 -0.389188 2.8574 142
143 3 -29.6649 16.1324 19.7827 -0.0448786 -2.38086 -0.269451 143
151 3 -22.922 28.072 19.23 -7.02045 0.877108 0.0725883 151
149 2 -22.3509 29.0946 19.7512 4.68244 -5.94704 0.0670565 149
150 3 -22.4051 29.3034 21.0062 4.68863 3.16005 5.94106 150
174 3 -24.5783 28.8985 26.6121 5.26444 0.0259975 -9.06721 174
3 1 -22.2327 28.8452 23.2563 -2.53369 2.70942 -0.893513 3
95 3 -20.5145 29.7151 24.6149 2.88281 2.29074 2.62815 95
1 1 5.18526 -26.4547 6.72204 2.70759 -0.422315 -2.14172 1
146 3 2.83854 -25.9464 7.35469 -9.12675 -3.20124 -0.8549 146
53 2 5.13014 -27.7711 1.7924 2.56025 -5.78958 2.64034 53
54 3 4.34841 -28.032 0.74947 -2.511 4.41717 -7.89193 54
55 3 4.63158 -27.7246 2.97682 1.43017 2.06203 -1.97687 55
21 1 8.11318 -29.1394 1.49943 -1.52387 -1.56957 -1.52051 21
56 3 6.35346 -27.557 1.63105 -2.4677 -2.02231 3.74931 56
138 3 12.6205 -28.787 7.17866 -2.79492 0.5207 5.51842 138
145 2 2.48603 -25.2192 8.35066 -2.16193 6.91542 -0.561354 145
147 3 2.38403 -25.8462 9.46539 1.9607 -3.56562 -0.0625705 147
148 3 2.06173 -23.946 8.19828 -7.26978 -1.38136 -3.68792 148
6 1 2.08326 -27.7718 10.5848 2.77537 -0.00039383 -0.229724 6
86 3 3.99124 -28.9693 10.1583 2.37763 -3.35937 -1.95803 86
137 2 11.8565 -29.2665 8.04675 -11.9503 3.86591 3.42108 137
140 3 11.7143 -28.6987 9.20402 -3.75908 1.31931 -6.93238 140
14 1 12.4 -26.6371 10.0618 3.3173 -1.64668 -1.76902 14
31 1 29.4472 5.83613 -25.2024 -1.74628 -0.210423 -4.07549 31
161 2 28.9024 5.90169 -18.0294 -6.125 7.04848 -3.08599 161
163 3 27.9825 5.92427 -18.9083 -2.63206 0.529877 -1.49075 163
162 3 28.6013 6.05418 -16.8241 -2.61422 3.52649 -1.28161 162
30 1 29.3573 11.304 -20.3023 1.44621 -1.74426 -2.39951 30
4 1 22.207 27.1332 -16.0443 -0.0491593 1.17786 -4.73646 4
37 2 27.4071 2.29425 -10.9847 0.716709 9.89774 0.925613 37
38 3 26.5633 1.57381 -11.5678 -2.86495 -5.75896 1.1087 38
39 3 27.4432 3.63555 -11.2122 1.17167 -2.39239 1.14646 39
40 3 28.2449 1.78372 -10.1434 -2.48461 -7.29149 -4.58406 40
64 3 23.8278 26.6306 -12.4029 0.0363188 3.22663 1.01435 64
62 3 23.4318 27.7639 -14.2958 -0.0604464 7.78711 -6.20504 62
61 2 23.9787 27.6792 -13.0918 3.33046 2.16339 6.17551 61
7 1 24.9197 25.5642 -10.1755 -0.255049 0.276197 1.14249 7
63 3 24.5173 28.7456 -12.5602 -2.46339 6.59847 -7.15238 63
25 1 13.482 22.9833 4.40652 1.133 2.71466 1.27013 25
158 3 13.5499 26.7157 1.64937 -0.806255 -4.86325 -0.0417292 158
160 3 13.3968 24.6322 0.845809 3.2099 -8.64966 -4.51172 160
105 2 12.8367 25.2323 6.90821 2.83383 4.25093 0.58386 105
106 3 12.7138 24.6175 5.75804 2.78261 -3.23695 8.15358 106
107 3 12.3815 26.3565 6.94628 -3.78514 -4.40388 -1.75345 107
12 1 12.4725 26.8255 4.53215 -1.84849 -0.297535 -1.69985 12
157 2 13.3126 25.4946 1.82762 -4.36578 0.560181 -3.3879 157
159 3 12.9563 25.0773 3.02003 -0.119118 3.16441 3.38449 159
85 2 4.61373 29.6568 9.78197 0.731629 -1.73732 -7.59411 85
87 3 5.66707 29.6849 8.93973 -1.15876 4.68502 -4.84312 87
88 3 4.16509 28.5858 10.1821 -6.6129 10.4853 0.382954 88
5 1 11.0992 27.7912 9.47598 -2.99377 -0.368351 2.05582 5
139 3 11.1362 29.3841 7.75086 2.6165 1.30999 3.66591 139
108 3 13.5519 24.7183 7.78678 -7.96778 -1.19853 5.37955 108
144 3 28.7361 14.5941 20.8539 7.35363 -2.28219 5.2247 144
10 1 28.2401 12.7001 22.092 3.35137 -5.61086 -1.63022 10
141 2 29.6062 15.5844 20.8926 -6.11328 -8.8062 -3.53278 141
ITEM: TIMESTEP
100
ITEM: NUMBER OF ATOMS
180
ITEM: BOX BOUNDS pp pp pp
-2.9849823217130805e+01 2.9849823217130805e+01
-2.9849823217130805e+01 2.9849823217130805e+01
-2.9849823217130805e+01 2.9849823217130805e+01
ITEM: ATOMS id type x y z vx vy vz id
112 3 -26.4952 -0.498459 -21.2744 3.37116 3.83292 2.61142 112
121 2 -14.4496 -24.8165 -2.99328 2.65643 -5.06608 -6.13052 121
122 3 -13.5465 -24.6035 -2.14231 0.57743 -2.37602 0.832598 122
123 3 -14.4882 -24.18 -4.13896 8.30256 -3.41309 -0.652532 123
124 3 -15.2962 -25.7705 -2.78374 1.2436 -3.96923 -3.71363 124
69 2 -10.6949 -23.0729 -1.38266 1.76144 -4.80465 0.626909 69
70 3 -10.8047 -24.0193 -0.514893 4.93285 3.04533 -4.02188 70
71 3 -9.99088 -23.298 -2.45482 -7.40356 2.99946 -2.14315 71
72 3 -11.3819 -22.0369 -1.28709 4.10808 -2.41248 -1.99293 72
28 1 -8.5024 -21.8625 -3.58104 -0.377185 -1.17648 -3.27516 28
18 1 -12.8403 -25.1522 0.0221043 1.90367 -2.22208 -0.931281 18
35 1 -4.2403 -24.2654 14.324 -0.137212 -1.32058 2.76335 35
165 2 -3.40583 -27.8086 14.5769 -4.99464 -10.7313 0.245403 165
166 3 -3.79813 -26.5447 14.4433 4.54019 -5.66437 -3.62104 166
168 3 -2.489 -28.345 13.8075 1.20726 4.68248 1.91302 168
114 3 -8.27645 -22.101 14.3226 5.90031 6.977 7.271 114
113 2 -7.03251 -22.0487 14.249 -1.55257 6.40413 5.52429 113
115 3 -6.5033 -20.8466 14.249 1.88297 2.3245 -2.25394 115
116 3 -6.25053 -23.0438 14.1383 1.84445 -10.4695 4.76942 116
48 3 -26.5514 -12.1797 12.4676 3.7773 2.97571 1.64999 48
45 2 -26.8985 -11.7178 13.6322 5.79458 -0.497007 2.44329 45
46 3 -25.9695 -11.3371 14.4119 -0.818452 3.02297 7.28577 46
47 3 -28.1208 -11.6624 13.9867 -2.1484 0.166431 2.47082 47
67 3 -23.3449 -26.0859 21.3232 -6.29071 -1.08794 1.75257 67
99 3 -19.7364 -28.504 20.5963 1.19779 -3.3482 -0.162621 99
80 3 -20.2476 -27.3812 18.0056 1.15945 -0.418153 7.87767 80
97 2 -19.3786 -27.794 21.606 6.58149 -9.20135 -3.52195 97
98 3 -20.2874 -27.0242 22.1203 -0.590372 -1.07827 -0.292638 98
100 3 -18.1814 -27.927 22.1167 -3.66192 2.58723 -7.59188 100
22 1 -18.6028 -24.108 20.262 1.68819 6.05328 0.207432 22
152 3 -21.6489 -29.6485 18.9947 1.62878 1.63983 1.76908 152
26 1 -22.0408 -27.7678 20.4325 -1.36345 -4.68272 1.04103 26
77 2 -21.3028 -26.5084 17.856 -0.976838 3.18772 3.83027 77
29 1 -19.3137 -29.4463 18.2189 -1.24036 -1.90317 1.02504 29
78 3 -21.5322 -26.0114 16.7374 -2.03037 5.12322 2.47716 78
79 3 -22.0101 -26.2201 18.8578 -7.90187 -5.78576 -0.500361 79
36 1 -6.02149 -29.3702 15.8525 -0.645214 -1.82534 0.827124 36
167 3 -3.94556 -28.4758 15.5182 3.13938 0.395648 0.0439637 167
81 2 -23.9455 -23.8065 27.665 -5.18665 3.57576 -1.30229 81
82 3 -23.9185 -24.8033 26.7443 -1.5155 1.69272 -0.165605 82
173 2 -23.8525 -29.4988 26.3014 0.9696 4.24009 2.2327 173
176 3 -23.4282 -29.2562 25.1062 -6.50727 -5.25506 2.95603 176
96 3 -20.8622 -27.7286 24.6328 8.32114 3.69593 -0.559805 96
65 2 -23.0992 -25.513 22.4153 -8.43793 2.77813 4.59025 65
17 1 -22.0144 -28.4207 28.9043 1.10125 -2.71235 -1.95426 17
66 3 -22.5348 -24.3558 22.4525 -0.23117 1.70381 -0.983322 66
68 3 -23.509 -26.0824 23.5491 6.81142 -3.52713 -5.24945 68
84 3 -23.8654 -24.0756 28.9164 -1.51249 3.5324 0.963045 84
117 2 -20.1018 -26.7432 27.1928 4.6158 -4.60326 3.72318 117
118 3 -21.3108 -26.5174 27.3245 -1.14649 -1.21228 -4.93171 118
119 3 -19.5262 -27.6089 27.8936 0.711655 0.558436 -1.93949 119
120 3 -19.3683 -26.0217 26.3579 -4.13354 0.235141 1.6449 120
9 1 -18.1996 -23.9924 27.0283 2.09938 -0.636597 0.215305 9
75 3 -19.323 -23.9609 22.7237 2.62598 2.0719 0.734676 75
13 1 -22.8188 -26.6205 25.6395 4.2858 -1.78227 -0.538581 13
93 2 -19.986 -28.6896 24.8761 1.31778 -2.02016 1.79457 93
94 3 -18.7831 -28.4408 24.9467 -0.748291 -2.0158 1.96111 94
15 1 -19.4364 -25.9697 24.0495 0.89958 0.749981 -1.14157 15
175 3 -23.6114 -28.5344 27.1743 8.21435 6.81425 0.107481 175
128 3 -17.1273 -25.9379 24.0341 -2.18026 -4.83228 11.0501 128
34 1 -16.6432 -28.6311 23.9279 0.276009 2.44461 -3.25074 34
125 2 -16.3128 -25.1902 24.6403 -1.34297 2.53889 -5.64712 125
126 3 -15.2588 -24.8422 24.0395 0.219945 -2.74464 4.45214 126
127 3 -16.4404 -25.0108 25.9122 8.74672 0.884754 3.2689 127
83 3 -24.1549 -22.595 27.2331 4.70564 0.581016 2.45201 83
19 1 -24.1939 -21.2209 25.2548 1.72619 -0.0116938 -0.0116017 19
73 2 -19.0098 -23.155 23.6835 0.128313 -1.31045 6.02529 73
74 3 -19.02 -23.5638 24.8679 -2.48667 6.18039 -7.6804 74
76 3 -18.6432 -21.9468 23.5009 2.99948 -4.63048 -4.16683 76
24 1 -28.5296 2.51272 -22.5009 -0.926628 -0.353088 1.62468 24
89 2 -28.0714 5.15143 -23.3428 3.34302 -10.5313 -3.78614 89
91 3 -29.1466 4.50529 -23.7242 0.739641 -12.1783 6.04943 91
110 3 -24.7285 0.716908 -22.1194 -1.88837 2.62046 -3.97038 110
33 1 -20.617 1.59695 -23.9956 -0.0698562 2.84208 3.41291 33
57 2 -22.6618 4.33907 -24.3345 -2.46771 -6.90056 -3.1865 57
58 3 -22.1896 3.51543 -23.4206 -2.43583 -4.7707 1.63023 58
59 3 -23.1088 5.50146 -23.9209 3.40875 5.97936 2.79138 59
60 3 -22.7232 3.99365 -25.5807 -2.67853 9.04605 1.20895 60
132 3 -24.3712 11.1394 -24.5973 -5.43766 -1.21399 2.0772 132
129 2 -24.8884 11.8147 -25.4688 -12.2611 0.097159 1.18641 129
2 1 -24.9974 9.91668 -22.544 -0.377286 -2.91746 -0.909326 2
131 3 -24.445 11.7869 -26.6628 -5.35024 -0.493005 -6.57273 131
153 2 -26.9929 8.51199 -27.6222 6.15539 -5.15744 -6.29992 153
154 3 -28.1143 8.88904 -28.1907 2.32186 5.64687 -3.71909 154
90 3 -27.6764 6.15294 -24.0518 2.78141 4.03138 2.05725 90
11 1 -24.0787 6.88501 -27.4281 1.39981 -4.85809 -4.29142 11
155 3 -26.0508 7.97202 -28.3278 2.58436 2.84012 1.12545 155
156 3 -26.7134 8.83892 -26.3998 -2.73689 4.25637 -0.654639 156
130 3 -25.9507 12.611 -25.2239 0.402955 1.70479 5.05259 130
164 3 -29.6832 6.00823 -18.5875 -7.2166 -2.30271 -1.53399 164
16 1 -29.5968 2.06003 -15.5355 -4.08114 -0.495802 0.64523 16
133 2 -26.6597 1.5079 -17.208 -2.40909 1.08259 2.28537 133
134 3 -26.9168 2.25285 -18.1647 -3.38246 -1.2079 -3.97634 134
135 3 -27.2505 1.66365 -16.124 5.01682 -5.58379 -8.68038 135
136 3 -25.6756 0.585191 -17.439 -4.44086 0.0761923 -4.51965 136
27 1 -28.1133 5.94059 -20.0834 -1.48332 1.19312 -1.0632 27
92 3 -27.4724 4.77931 -22.2263 7.44886 -1.9681 -3.25746 92
109 2 -25.9587 0.638069 -21.6518 1.40386 -0.12346 3.22659 109
111 3 -26.6095 1.7478 -21.5174 -1.2801 9.32886 -2.16112 111
52 3 -20.1649 -0.053387 -20.1744 -0.565082 -11.0423 -5.56696 52
20 1 -23.3281 2.35616 -21.5027 5.0934 4.45336 -0.365241 20
32 1 -23.6217 0.122197 -18.0093 -3.59612 -2.86186 1.03594 32
49 2 -21.2008 0.571892 -20.6025 -5.27575 -1.73445 -6.54615 49
50 3 -22.1846 0.730679 -19.7202 8.06562 1.00299 -9.51932 50
51 3 -21.3299 1.03117 -21.8289 1.10178 6.70055 -0.556594 51
169 2 -23.2407 4.85256 -17.443 -2.87117 -4.23306 -2.17623 169
170 3 -24.0591 4.2428 -18.2275 -4.15984 -2.0957 7.03012 170
171 3 -22.3224 5.59946 -17.984 -2.97156 2.28671 2.39734 171
172 3 -23.2762 4.71216 -16.1703 2.28375 -3.64615 0.125931 172
101 2 -27.1858 9.93426 -19.8029 2.35774 -1.66819 -3.50916 101
102 3 -26.3778 9.69596 -18.8232 -4.62585 3.53274 -2.48738 102
103 3 -28.3787 10.2434 -19.5573 -4.92898 -4.53852 0.625597 103
104 3 -26.7699 9.88397 -21.0374 -0.393715 3.00516 -7.20998 104
177 2 -25.0584 3.06563 -12.3559 -1.78317 -4.80436 8.53163 177
178 3 -24.0458 2.80306 -13.0392 7.52776 4.4091 -2.42342 178
179 3 -25.1522 2.68365 -11.0732 -3.09987 5.75804 -0.157611 179
180 3 -26.028 3.77158 -12.8152 -2.80368 0.717561 0.176548 180
23 1 -29.6636 2.35939 -8.95641 1.90381 2.42684 1.46001 23
8 1 -24.7569 5.16519 -14.2937 -2.60604 3.5837 -5.26381 8
41 2 -19.0255 7.84741 4.02343 -6.92304 -0.694091 -0.151124 41
42 3 -17.8752 8.30234 3.69993 5.26055 2.24555 -4.49353 42
43 3 -19.5694 8.12622 5.07406 3.12412 -0.76679 1.97357 43
44 3 -19.7017 7.0838 3.14502 1.23969 2.05884 -4.88908 44
151 3 -22.749 28.0854 18.9917 4.3887 -4.39331 -8.0726 151
149 2 -22.2482 29.1176 19.6128 -0.573519 5.96567 -2.28611 149
150 3 -22.3747 29.2396 20.9022 -1.81901 1.20161 -2.26484 150
174 3 -24.4912 29.1402 26.5996 -2.1382 -1.21651 0.469791 174
3 1 -22.2712 29.185 23.4002 -3.67269 6.86472 1.12159 3
95 3 -20.3993 29.7805 24.8781 0.0713083 1.87711 -3.62798 95
1 1 5.11756 -26.3677 6.53513 2.61551 1.28416 1.52404 1
146 3 3.02899 -26.0057 7.33178 8.78543 -2.57646 3.42736 146
53 2 5.02133 -27.6563 1.85581 -2.78794 -5.54378 -2.18182 53
54 3 4.21627 -27.7876 0.829889 2.41582 -3.63588 5.17887 54
55 3 4.66365 -27.8365 3.05569 -1.74062 0.967202 3.32475 55
21 1 8.10445 -29.2957 1.44157 -0.973099 -1.61741 -0.812561 21
56 3 6.28045 -27.5407 1.63526 -0.422353 4.52095 1.65551 56
138 3 12.5734 -28.855 7.19442 2.5283 3.8294 -4.42604 138
145 2 2.58235 -25.2763 8.30999 7.62962 2.50502 3.23329 145
147 3 2.64041 -25.7859 9.51319 -0.383719 0.266374 1.86248 147
148 3 2.04906 -24.1437 8.02892 1.81127 -5.44053 -3.30239 148
6 1 2.06546 -27.7732 10.7578 1.0421 2.06531 0.960845 6
86 3 4.0815 -28.931 10.1348 -0.206674 0.0340182 -1.32048 86
137 2 11.825 -29.3093 8.14645 3.1826 0.862872 -1.04026 137
140 3 11.8167 -28.6774 9.20158 3.47349 -3.54867 -0.445139 140
14 1 12.4643 -26.5479 9.94947 0.312707 -0.61286 2.61354 14
31 1 29.476 6.01642 -25.1898 1.62574 -0.97984 -0.300069 31
161 2 28.7555 5.96434 -18.2908 -8.15944 -0.861747 0.799531 161
163 3 27.8777 5.70011 -19.1898 -1.27413 -4.98707 -7.26109 163
162 3 28.4108 6.23993 -17.0861 -10.119 5.68158 4.62819 162
30 1 29.3354 11.3052 -20.5217 -6.4077 0.0678382 -2.50414 30
4 1 22.351 27.0345 -16.2173 1.88298 2.26456 -1.18387 4
37 2 27.3049 2.53598 -10.9797 3.43781 8.47338 -0.274759 37
38 3 26.2802 1.84045 -11.387 4.76418 -0.0672868 -0.359092 38
39 3 27.579 3.68154 -11.3578 -0.973395 -0.719388 1.1455 39
40 3 28.0724 1.82915 -10.2125 2.56802 2.32288 3.11231 40
64 3 23.6122 26.9146 -12.2075 -6.52052 0.725191 3.5951 64
62 3 23.6435 27.858 -14.2738 3.14035 1.33784 7.51844 62
61 2 23.7929 27.9635 -12.9679 3.15146 2.41388 -4.8315 61
7 1 24.9345 25.7906 -10.3675 -0.688377 2.58119 -5.89254 7
63 3 24.1716 29.1186 -12.5068 -4.46466 -3.29556 -1.28551 63
25 1 13.5105 23.212 4.13527 0.906107 0.962322 0.818571 25
158 3 13.6761 26.6603 1.77616 4.73556 1.35376 3.34251 158
160 3 13.7763 24.4901 1.08927 -2.20428 0.624699 0.933112 160
105 2 12.6185 25.3139 6.94871 -4.4453 -3.10497 -7.76623 105
106 3 12.3705 24.9593 5.75142 -1.21099 6.66915 -8.20542 106
107 3 12.4548 26.5128 7.3306 0.849376 9.36425 9.2216 107
12 1 12.3662 26.9867 4.35305 1.06645 0.0196316 -0.0902126 12
157 2 13.4145 25.4418 1.96163 -2.55982 -3.56328 -0.17561 157
159 3 12.7511 25.0902 3.02424 4.73034 4.66317 -3.64741 159
85 2 4.38646 29.7103 9.46156 -7.52551 4.2173 -7.48278 85
87 3 5.51288 29.6135 8.85903 -7.63578 1.11552 -3.23157 87
88 3 3.55937 28.7573 9.56339 -0.723541 -4.68183 -3.22644 88
5 1 10.9575 27.8178 9.64889 3.95415 -0.442324 0.365239 5
139 3 11.0096 29.4134 7.9089 -5.61253 10.4094 -1.04276 139
108 3 13.137 24.4325 7.78028 0.349854 -7.80385 -1.66629 108
142 3 29.5285 16.1867 21.9254 -4.94169 1.19841 -3.72825 142
144 3 28.9261 14.5206 20.7111 2.31546 4.49725 -3.51144 144
10 1 28.2051 12.54 22.0354 -0.587108 3.06356 1.19347 10
141 2 29.4254 15.6304 20.7604 5.49038 -5.53177 -6.11634 141
143 3 29.8117 16.2841 19.6735 1.98798 -2.79804 2.16679 143
ITEM: TIMESTEP
200
ITEM: NUMBER OF ATOMS
180
ITEM: BOX BOUNDS pp pp pp
-2.9849823217130805e+01 2.9849823217130805e+01
-2.9849823217130805e+01 2.9849823217130805e+01
-2.9849823217130805e+01 2.9849823217130805e+01
ITEM: ATOMS id type x y z vx vy vz id
52 3 -20.0856 -0.0210852 -20.1629 -0.688015 3.89694 0.329668 52
112 3 -26.1988 -0.173958 -21.6703 4.01883 1.83454 -6.24535 112
121 2 -14.4301 -24.8926 -2.95061 -2.9172 9.31424 3.34232 121
122 3 -13.3812 -24.5965 -2.26443 5.6799 0.377439 -1.23974 122
123 3 -14.6709 -24.2663 -3.99829 -2.50233 -4.70769 -0.172951 123
124 3 -15.1927 -25.8536 -2.55776 2.8662 -1.72825 4.67077 124
69 2 -10.8485 -23.1101 -1.48362 5.09258 -2.81997 0.6868 69
70 3 -10.8348 -24.1358 -0.715094 -5.5547 -0.98669 1.65263 70
71 3 -10.2238 -23.126 -2.56873 1.52656 7.06984 -0.572312 71
72 3 -11.4452 -22.0175 -1.18432 -0.906631 2.91938 2.62224 72
28 1 -8.3318 -21.7578 -3.46158 1.02931 2.29005 3.70904 28
18 1 -12.7447 -25.386 -0.154139 0.23209 1.21487 -3.67058 18
35 1 -4.18286 -24.3082 14.209 1.17374 5.30979 -4.69269 35
165 2 -3.30207 -27.8814 14.5183 -2.6299 8.53498 1.23552 165
166 3 -3.79388 -26.7505 14.0725 0.745836 -0.7001 -1.1458 166
168 3 -2.27324 -28.3097 13.9697 -1.76732 4.6109 6.8863 168
114 3 -8.15708 -21.8147 14.5131 2.16859 1.10208 -6.91983 114
113 2 -6.91892 -21.9335 14.2837 -0.97574 5.50193 -8.13593 113
115 3 -6.2239 -20.9297 13.9285 0.230241 -0.98465 0.0298256 115
116 3 -6.26196 -23.1527 14.3926 4.7357 -6.32388 -1.37751 116
48 3 -26.5203 -12.1188 12.7146 -0.22104 -3.61507 -5.42415 48
45 2 -26.7145 -11.624 13.8672 6.11863 -13.1115 1.22926 45
46 3 -25.7473 -11.2973 14.6686 -0.207399 1.56152 0.959054 46
47 3 -27.9919 -11.584 14.2857 -3.35714 -1.09531 2.14509 47
67 3 -23.3503 -26.1489 21.4516 3.5559 -5.64953 5.33442 67
99 3 -19.759 -28.6677 20.6003 -6.63373 2.3997 3.26549 99
80 3 -20.2261 -27.3305 18.1444 -2.44151 1.49727 4.74899 80
97 2 -19.3216 -27.8324 21.437 -6.31105 -3.3946 5.25486 97
98 3 -20.2333 -27.1172 22.0578 -0.221856 0.811238 7.50029 98
100 3 -18.118 -27.7609 21.8118 -3.87525 3.74304 -7.59614 100
22 1 -18.3914 -23.9765 20.264 -0.0880264 -1.25889 -4.87996 22
26 1 -22.2191 -27.9415 20.4367 0.000996272 -0.494051 0.266165 26
77 2 -21.2805 -26.6031 17.8675 10.2103 -4.88679 3.03564 77
29 1 -19.4549 -29.7173 18.3528 -0.129892 -1.29867 -0.949808 29
78 3 -21.4764 -25.9836 16.7593 6.9349 -2.3113 -2.18445 78
79 3 -22.1386 -26.4221 18.818 -1.07142 1.60744 -5.52963 79
95 3 -20.4827 -29.8165 24.8445 -2.6902 -2.32803 -0.765177 95
36 1 -6.09133 -29.4654 15.9961 -5.18985 -1.50933 1.40888 36
167 3 -3.98134 -28.5962 15.3348 0.245774 -4.96126 -1.79881 167
81 2 -23.7732 -23.8947 27.6937 -1.32313 -0.409991 -2.84994 81
82 3 -23.8825 -24.8937 26.9125 -4.66392 3.63767 8.29732 82
173 2 -23.9098 -29.4543 26.1588 6.37734 -5.73269 3.09501 173
176 3 -23.7334 -29.201 24.9515 -3.84886 -0.977929 -0.24703 176
96 3 -21.0726 -27.6881 24.6893 1.30549 -2.03448 -0.482804 96
65 2 -23.2451 -25.4897 22.5984 -4.66195 1.03949 3.05611 65
17 1 -21.7815 -28.5048 29.2472 3.91569 2.92389 0.88301 17
66 3 -22.7515 -24.2881 22.5252 2.04529 -0.206134 4.75782 66
68 3 -23.604 -26.0271 23.6508 -2.07704 1.32217 2.67748 68
84 3 -23.7162 -24.092 28.9997 1.09367 -1.23238 0.0641766 84
117 2 -19.8519 -26.8279 27.3426 10.1639 1.95013 -8.84344 117
118 3 -21.1128 -26.67 27.5214 -2.10405 4.14339 2.71261 118
119 3 -19.2521 -27.8388 27.8682 3.33426 -3.17812 2.83891 119
120 3 -19.2423 -25.9691 26.5648 4.95073 -2.11095 -2.34335 120
9 1 -17.9195 -23.8471 27.0735 3.88094 0.19029 -3.66512 9
75 3 -18.9889 -24.0392 22.5992 3.47679 -2.47803 6.83851 75
13 1 -22.8589 -26.6814 25.8923 2.44216 0.83731 1.75646 13
93 2 -20.1965 -28.572 24.6901 -4.40456 3.82199 0.340683 93
94 3 -18.9527 -28.2532 24.3894 0.576302 2.19905 -6.44565 94
15 1 -19.3059 -26.0576 24.0593 0.166907 2.51975 -0.329831 15
175 3 -23.2638 -28.7865 27.0455 -4.69735 -5.13155 1.05636 175
128 3 -16.9015 -26.047 24.0078 2.34219 -2.62462 -6.67039 128
34 1 -16.7208 -28.4706 23.6985 -2.81461 -1.24571 2.20389 34
125 2 -16.1509 -25.2015 24.6108 -0.727347 7.97643 -7.21388 125
126 3 -15.1406 -24.6207 24.0199 2.42902 7.28556 -0.790467 126
127 3 -16.3214 -24.9746 25.85 -3.93364 -4.66966 1.13457 127
83 3 -23.9739 -22.7171 27.2446 4.22926 -2.90195 6.22529 83
19 1 -24.3223 -21.056 25.4861 0.481369 2.8429 3.40565 19
73 2 -18.6996 -23.2407 23.599 1.56654 2.20418 3.60962 73
74 3 -18.8245 -23.6037 24.7399 5.96979 -3.43334 7.81032 74
76 3 -18.3317 -22.0073 23.3576 3.87162 2.1953 -2.26947 76
24 1 -28.6127 2.23267 -22.479 0.108817 3.08932 -1.79637 24
89 2 -27.9394 5.03318 -23.3565 -3.75401 0.87662 0.963228 89
91 3 -28.9409 4.34327 -23.8054 -0.6155 -3.18729 2.90851 91
110 3 -24.8207 1.45502 -22.3164 -6.76472 2.92035 1.00936 110
33 1 -20.6382 1.71965 -24.1648 0.610723 -2.23398 -0.062404 33
57 2 -22.8381 4.49353 -24.3091 3.39958 -3.76759 6.69064 57
58 3 -22.2364 3.55078 -23.6208 3.54165 -1.84163 -0.426523 58
59 3 -23.0956 5.60818 -23.6798 -3.50246 -5.52601 -4.37731 59
60 3 -23.1401 4.434 -25.5352 -7.53731 -0.669406 8.16777 60
132 3 -25.0094 10.9505 -24.8024 -2.84017 -3.3878 2.56495 132
129 2 -25.2506 11.9048 -25.6911 -7.58834 8.62328 -6.62296 129
2 1 -25.105 9.93358 -22.6522 -0.323847 -0.998789 -4.3592 2
131 3 -24.5205 11.9157 -26.7962 5.39927 6.50372 -1.23197 131
153 2 -27.1666 8.79812 -27.7805 -3.37289 -0.563173 3.38416 153
154 3 -28.3043 9.12417 -28.3103 -2.51872 0.356758 5.35273 154
90 3 -27.4098 6.04055 -24.0214 5.36493 -2.86006 3.72368 90
11 1 -24.2786 6.9196 -27.4802 -3.74984 3.60926 0.908767 11
155 3 -26.3271 8.04773 -28.4005 -9.18389 0.270844 -1.36966 155
156 3 -26.9094 9.22024 -26.5765 4.14595 7.40662 -3.10929 156
130 3 -26.0359 12.8417 -25.3328 0.382618 -3.36272 -2.93543 130
164 3 -29.8016 5.55931 -18.59 -5.40173 1.32758 -9.15857 164
16 1 -29.7805 2.18904 -15.548 -1.11575 3.92325 2.97913 16
133 2 -26.6649 1.39878 -17.3454 4.00821 -6.39867 -4.94072 133
134 3 -27.0481 1.99046 -18.4341 -0.614915 6.29318 -3.70171 134
135 3 -27.1536 1.75958 -16.2388 -2.83463 -2.02343 1.36315 135
136 3 -25.9488 0.352288 -17.4377 1.29413 6.73295 8.68151 136
27 1 -28.0926 5.83848 -20.2756 -0.396588 -0.841899 -4.26417 27
92 3 -27.4492 4.7459 -22.1861 -6.58603 10.6642 -3.42099 92
109 2 -25.9036 1.07789 -21.7929 -0.352127 0.774699 -1.91524 109
111 3 -26.6708 1.99536 -21.3287 -1.7651 -5.53652 -2.29627 111
20 1 -23.2444 2.58906 -21.361 0.0444436 3.45488 1.21317 20
32 1 -23.7096 0.192131 -18.1079 -1.65283 -0.740294 1.29537 32
49 2 -21.053 0.743992 -20.6011 1.1028 0.676708 5.55609 49
50 3 -22.0342 0.969713 -19.9137 3.51221 8.64993 -7.64789 50
51 3 -21.0033 1.23232 -21.8123 1.99865 0.25384 6.07703 51
169 2 -23.2015 4.7114 -17.3107 4.69297 10.4004 -2.51252 169
170 3 -24.0256 4.33854 -18.217 4.44503 -0.389829 -5.20895 170
171 3 -22.3947 5.69613 -17.4848 4.47019 -2.48213 1.37331 171
172 3 -23.1532 4.12193 -16.1607 2.80123 -1.95418 -3.4186 172
101 2 -27.4068 9.95469 -20.2394 -4.15012 -1.82334 -0.741034 101
102 3 -26.7419 9.8526 -19.1782 0.821632 2.37992 -3.9106 102
103 3 -28.7145 10.1808 -20.1214 -2.7085 5.07598 -0.786051 103
104 3 -26.9154 9.75458 -21.4086 -2.16711 -5.35503 2.70935 104
177 2 -25.3156 3.0979 -12.5072 0.184595 -6.14888 6.4481 177
178 3 -24.1428 3.08772 -13.1366 -0.637352 0.676431 -5.76589 178
179 3 -25.492 2.45221 -11.5072 -0.318219 0.119633 -2.79486 179
180 3 -26.2038 3.98576 -12.979 -2.5626 -5.19707 -1.54861 180
23 1 -29.5114 2.40278 -9.1333 1.12158 -1.0595 -0.912628 23
8 1 -24.6563 5.0762 -14.4389 5.09597 -1.70256 -1.41069 8
41 2 -19.1221 7.77195 4.01291 -0.20559 -10.0273 -4.96015 41
42 3 -17.9507 8.02267 3.49639 -3.50654 -5.38638 -0.287848 42
43 3 -19.4036 8.27368 5.17263 1.47021 3.85872 6.17491 43
44 3 -19.9407 6.95968 3.40746 -4.91676 4.44098 -2.29875 44
143 3 29.8238 16.3672 19.7868 -3.23653 4.60344 -0.304286 143
151 3 -22.8193 27.6964 19.0498 -4.56074 3.93275 -0.330649 151
149 2 -22.3641 28.7971 19.6466 1.89697 -3.26498 7.62604 149