ITEM: TIMESTEP
0
ITEM: NUMBER OF ATOMS
180
ITEM: BOX BOUNDS pp pp pp
-2.9849823217130805e+01 2.9849823217130805e+01
-2.9849823217130805e+01 2.9849823217130805e+01
-2.9849823217130805e+01 2.9849823217130805e+01
ITEM: ATOMS id type x y z vx vy vz id
112 3 -26.2177 -1.05153 -21.4129 5.81659 -4.18101 -4.14566 112
121 2 -14.4051 -25.0482 -2.65399 6.06992 3.21005 -4.37566 121
122 3 -13.2489 -24.9055 -2.20122 0.228259 0.0397482 7.01334 122
123 3 -14.8792 -24.0933 -3.38904 3.20436 -1.22091 2.05529 123
124 3 -15.1615 -26.068 -2.36815 1.63348 -4.1175 -3.61725 124
69 2 -11.0579 -22.6573 -1.45292 0.00192889 -4.17592 -0.565403 69
70 3 -11.0674 -23.5697 -0.554452 -1.7227 10.0914 -3.42868 70
71 3 -10.3499 -22.8135 -2.54678 0.923492 2.26949 2.73487 71
72 3 -11.7753 -21.615 -1.28368 -2.55401 2.93944 -7.43293 72
28 1 -8.47222 -21.6783 -3.69888 -5.83603 1.32772 -1.08203 28
18 1 -13.0251 -25.0148 0.158687 5.05893 -0.814764 2.36549 18
35 1 -4.50655 -24.1552 14.3374 -2.5996 1.87583 -3.11494 35
165 2 -3.37117 -27.572 14.636 -0.872197 -7.35951 -0.443319 165
166 3 -3.97519 -26.4743 14.4182 3.69088 -4.6077 3.12215 166
168 3 -2.41437 -27.957 13.8914 -1.97342 2.39675 1.41636 168
114 3 -8.52386 -21.9343 14.4249 2.71697 3.48147 0.996254 114
113 2 -7.22213 -21.8326 14.2025 -3.27592 10.5053 1.69481 113
115 3 -6.66749 -20.7288 13.8878 8.76582 2.19857 0.805464 115
116 3 -6.55677 -22.9662 14.2375 0.600154 6.31189 6.74418 116
48 3 -26.202 -12.6196 12.4306 -2.85811 0.788561 -0.922416 48
45 2 -26.6751 -11.9956 13.4743 2.13143 0.63223 2.96463 45
47 3 -27.9513 -12.0027 13.72 -2.87921 -1.9558 3.10148 47
46 3 -25.8491 -11.2799 14.228 5.15704 1.68721 1.99133 46
67 3 -22.8076 -25.9891 21.2836 3.34938 -5.46571 -3.60266 67
99 3 -19.6729 -28.7683 20.6088 -3.77645 -3.31675 -0.285031 99
80 3 -20.6687 -27.326 18.1305 -3.80375 -1.54572 7.76812 80
97 2 -19.0511 -28.0233 21.4472 0.189732 0.337445 3.17743 97
98 3 -19.8055 -27.1103 22.0507 -5.67426 -5.09925 2.78407 98
22 1 -18.5143 -24.3657 20.3204 -0.953092 -0.201734 1.60455 22
152 3 -21.7938 -29.82 18.8878 0.582096 -3.48333 -1.35693 152
26 1 -21.9762 -27.7429 20.2241 -0.774059 4.1175 3.30828 26
77 2 -21.5002 -26.5457 17.6143 -0.595438 4.35474 4.61838 77
29 1 -19.5512 -29.6157 18.1356 1.97821 -0.170565 -5.88769 29
78 3 -21.3582 -26.0665 16.3989 4.78453 -2.63484 1.58972 78
79 3 -22.627 -26.3172 18.254 2.65436 2.05623 -2.13432 79
100 3 -17.8652 -28.2401 21.7824 -5.2887 7.87215 -4.59063 100
36 1 -6.04052 -29.3947 15.9955 0.964307 4.55474 6.04756 36
167 3 -3.66915 -28.2364 15.6946 1.32578 1.45511 4.00542 167
96 3 -21.1182 -27.8838 24.8652 3.43319 1.00218 3.09673 96
65 2 -22.8453 -25.4657 22.4592 -2.30033 -3.42207 -1.46533 65
17 1 -22.1209 -28.3546 29.2242 1.07761 -1.96374 1.19368 17
81 2 -23.771 -24.0597 27.5469 -1.30555 5.02467 -5.38676 81
66 3 -22.5616 -24.2618 22.6298 -4.74111 -1.19058 -0.42247 66
82 3 -23.8345 -25.0327 26.7623 -2.4081 0.197613 -1.82593 82
68 3 -23.1614 -26.2328 23.4715 3.91358 -3.60948 -5.67592 68
84 3 -23.6837 -24.2325 28.8084 3.5312 2.5144 3.08968 84
117 2 -19.9522 -26.8337 27.2733 4.94662 -0.483879 4.42881 117
118 3 -21.218 -26.6784 27.6384 -1.70657 -1.36487 -3.0623 118
119 3 -19.2587 -27.8236 27.7607 1.25504 3.62626 0.427288 119
120 3 -19.4405 -25.987 26.5112 -3.62913 -2.37851 8.01574 120
75 3 -19.2237 -24.0607 22.6778 -1.34717 9.73664 2.35738 75
173 2 -23.8451 -29.7871 26.4435 2.16003 -3.73761 -1.42792 173
13 1 -22.935 -26.8728 25.7383 -2.47727 0.239882 1.14791 13
93 2 -20.2611 -28.853 24.7675 1.13984 -6.92113 -0.684198 93
94 3 -19.0175 -28.5261 24.6237 -0.477717 -1.31876 7.23893 94
15 1 -19.5549 -26.0712 24.1865 2.79744 -0.935043 -3.7676 15
175 3 -23.6886 -28.7636 27.1324 2.51028 1.32008 -6.62946 175
128 3 -17.2001 -26.2822 24.2722 -4.79317 5.69348 2.03866 128
34 1 -16.7309 -28.7114 24.1715 -0.325808 -0.144903 -5.18675 34
125 2 -16.4337 -25.3158 24.6498 6.62991 -0.446346 -10.1861 125
126 3 -15.3299 -25.112 23.9965 -0.0109569 2.26032 0.453657 126
127 3 -16.7444 -24.7486 25.7738 0.793938 2.21315 -3.09338 127
19 1 -24.3305 -21.26 25.5431 -0.508314 0.270395 0.113903 19
83 3 -23.7925 -22.841 27.1278 -1.81156 0.717923 0.185523 83
73 2 -19.1216 -23.2497 23.6546 -7.2879 -4.51403 5.715 73
9 1 -18.3623 -23.8049 27.1261 1.36869 -3.50255 0.488123 9
74 3 -19.4079 -23.6955 24.8457 -1.00746 1.96212 -5.29989 74
76 3 -18.7322 -22.0402 23.4655 3.58113 -5.88829 -0.0446886 76
24 1 -28.4924 2.2244 -22.4493 3.69812 -0.744731 0.378832 24
89 2 -27.9007 4.89678 -23.2516 -2.26219 -7.81115 1.72396 89
90 3 -27.3564 5.8059 -23.9758 -3.18528 4.43125 0.154179 90
91 3 -28.9342 4.24451 -23.6853 -0.619186 -1.24296 -1.33046 91
33 1 -20.4007 1.50567 -23.6859 0.805132 1.64154 -3.5022 33
57 2 -22.8964 3.89895 -24.127 -6.96178 -3.50005 -3.61811 57
58 3 -22.4249 2.88871 -23.5278 1.03407 -5.0076 8.13195 58
59 3 -22.9424 5.04825 -23.5428 -1.63695 5.99124 4.3823 59
60 3 -23.2932 3.86717 -25.3478 1.79215 -3.3436 0.215407 60
132 3 -24.5165 10.785 -24.4774 -2.69491 -2.86343 3.5316 132
129 2 -24.9967 11.7364 -25.2832 -1.60949 1.86998 0.574281 129
2 1 -24.8385 9.46935 -22.7353 -0.612621 -3.22206 1.21724 2
131 3 -24.4515 11.9007 -26.4442 3.71726 0.629177 -3.61632 131
153 2 -26.8965 8.73294 -27.6226 2.78683 -3.10235 0.347869 153
154 3 -27.9595 8.77741 -28.3361 4.50999 -6.15628 -4.94016 154
11 1 -24.0875 7.00224 -27.2699 -0.00525437 4.3859 0.116554 11
155 3 -25.7602 8.5157 -28.1901 -1.35619 -2.69428 -3.91783 155
156 3 -26.9371 8.97499 -26.3564 3.95037 7.94906 -1.34585 156
130 3 -25.9789 12.4494 -24.9153 1.2452 -3.52557 -3.67226 130
164 3 -29.2613 5.61173 -18.4341 0.196694 -1.46543 -9.16947 164
133 2 -26.5593 1.3108 -17.3978 -1.69167 -1.89619 4.01313 133
134 3 -27.0921 2.09227 -18.2851 1.92803 -4.1105 2.3916 134
135 3 -26.9901 1.39838 -16.1538 3.1581 -6.93839 0.161842 135
136 3 -25.8389 0.35147 -17.6454 -2.88939 1.41799 -1.93657 136
170 3 -24.0621 3.9105 -17.9744 1.67155 0.0377504 0.113647 170
27 1 -27.7819 5.80491 -20.1799 4.49483 0.729651 1.08883 27
92 3 -27.4051 4.60001 -22.1607 1.76816 -8.8748 2.97959 92
109 2 -25.7044 0.0330957 -21.6948 2.46622 -3.50409 1.69785 109
110 3 -24.4755 0.13013 -22.1204 4.00503 -2.77593 3.33815 110
111 3 -26.4282 1.06892 -21.6536 -0.391838 1.08727 2.34844 111
52 3 -19.9878 0.220438 -19.8281 0.681383 -7.14553 -1.54121 52
20 1 -23.3555 2.05058 -21.4534 -1.34361 3.08658 2.2629 20
32 1 -23.6192 0.024322 -17.941 -3.36085 -3.94609 4.53561 32
49 2 -21.0835 0.769073 -20.2054 -0.728802 -1.16357 0.865417 49
50 3 -22.1033 0.881721 -19.4834 -1.58542 -2.61237 -6.96017 50
51 3 -21.1075 1.26567 -21.3799 5.15071 -3.54717 -1.68676 51
169 2 -23.1861 4.55333 -17.311 -2.02614 -1.9997 3.26551 169
171 3 -22.4623 5.39914 -17.8827 -1.40433 -5.98655 4.53936 171
172 3 -23.1195 4.2863 -16.0275 -0.001677 -3.9286 3.40022 172
101 2 -26.982 10.126 -19.7494 -1.13676 -5.83137 -6.09304 101
102 3 -26.1496 9.80908 -18.8186 -1.57552 -2.08862 2.44341 102
103 3 -27.9321 11.0331 -19.5378 -2.16733 -1.69862 1.904 103
104 3 -26.8834 9.59834 -20.8655 3.75849 -5.39418 -3.30368 104
177 2 -25.2706 3.31428 -11.8724 0.397104 -4.34895 6.86306 177
178 3 -24.3941 2.92591 -12.8515 -1.41222 -3.60828 1.6745 178
179 3 -25.381 2.76112 -10.7407 1.97975 1.27833 5.47585 179
180 3 -26.0436 4.26329 -12.3098 2.03009 6.00033 -2.60367 180
23 1 -29.7467 2.22846 -8.53488 -3.2851 -1.30417 5.54596 23
8 1 -24.5302 5.00605 -14.101 1.89762 0.934327 -0.867927 8
41 2 -19.418 7.54055 4.46145 -3.49256 -0.882062 0.883314 41
42 3 -18.1303 7.61477 4.58857 0.658846 4.29904 5.23764 42
43 3 -20.1484 8.48911 5.01796 0.448465 -0.462213 4.29931 43
44 3 -19.9247 6.53479 3.89939 3.74863 -2.90385 2.60572 44
142 3 -29.6459 15.9869 22.1177 -7.0287 5.47467 -0.614168 142
143 3 -29.6805 16.2091 19.8911 -1.43596 -1.90568 3.61143 143
151 3 -22.6284 27.83 19.1485 -4.13008 -3.5458 2.79789 151
149 2 -22.4397 29.0098 19.615 -4.51341 -1.74317 1.37038 149
150 3 -22.8415 29.2561 20.8044 -4.60426 -1.66806 -0.443124 150
174 3 -24.5312 28.9168 26.971 0.846505 -1.64121 -1.59683 174
176 3 -23.4505 29.8228 25.2041 4.39066 -3.4501 -1.79249 176
3 1 -22.4173 29.1814 23.2705 -1.57558 0.607863 -1.03893 3
95 3 -20.6458 29.6501 24.8353 1.21034 -1.70229 -4.34216 95
1 1 5.07018 -26.3962 6.82925 -1.6086 -1.37 -1.29833 1
53 2 5.13803 -27.838 1.73438 -0.683704 5.33925 -6.31951 53
54 3 4.37292 -28.2867 0.812283 0.891024 -0.703111 0.854758 54
55 3 4.7852 -27.8521 2.95184 -2.17627 -6.34413 -2.66388 55
21 1 8.17938 -28.9886 1.37892 1.42353 -0.407223 0.882679 21
56 3 6.30567 -27.1854 1.4843 3.94844 -3.00288 -4.38098 56
138 3 12.8729 -28.8545 7.10271 0.483005 -5.52021 -2.3987 138
145 2 2.66476 -25.3613 8.56218 2.8006 -0.678802 1.7052 145
146 3 2.87891 -26.1543 7.58753 -2.17381 0.330102 -1.04186 146
147 3 2.66142 -25.7934 9.79108 1.51294 -0.554229 4.71735 147
148 3 2.27783 -24.136 8.29554 3.55784 -8.4546 3.43383 148
6 1 1.97268 -27.7836 10.7892 3.39983 3.32092 0.462722 6
86 3 4.02935 -28.9428 10.5144 7.10613 3.42659 3.06707 86
140 3 11.7054 -28.6905 9.08828 -6.4675 4.54244 -4.69343 140
137 2 12.0362 -29.3409 7.94165 3.26395 -6.45989 3.07938 137
14 1 12.4754 -26.9076 10.3886 2.49935 2.58611 -1.27677 14
31 1 29.6219 5.90401 -25.0786 2.95042 -3.57209 -4.0709 31
16 1 29.7972 1.95098 -15.4591 -1.17946 -0.304936 -0.367378 16
161 2 29.2627 5.87776 -18.0757 1.30213 -1.78062 5.3054 161
163 3 28.2459 5.79802 -18.9103 0.424798 -0.618841 -5.24135 163
162 3 29.0183 6.32314 -16.864 -5.46233 2.43274 3.23966 162
30 1 29.4221 11.5486 -20.3431 2.13585 0.311491 0.61928 30
4 1 22.1911 26.9224 -15.8417 -1.47984 -4.32734 3.62799 4
37 2 27.1375 2.44044 -10.7911 -2.8174 6.43098 1.92549 37
38 3 26.2928 1.707 -11.3484 -2.58203 2.64973 1.5413 38
39 3 27.2026 3.71867 -11.1417 -2.07638 -5.25167 2.05845 39
40 3 28.0354 1.9414 -9.98 0.558239 -2.9842 -0.466847 40
64 3 23.7766 26.5629 -11.9738 -6.07174 5.96366 1.45386 64
62 3 23.3856 27.5251 -13.9375 -2.68179 -1.5057 0.174045 62
61 2 23.9524 27.532 -12.8326 -2.13573 3.63008 -2.69472 61
7 1 25.0464 25.487 -10.1903 -1.46385 -1.35739 0.494833 7
63 3 24.7171 28.5087 -12.4489 0.957564 -2.40661 -5.9212 63
25 1 13.3492 23.0389 4.28401 0.300551 3.05381 1.69395 25
158 3 13.5296 26.9022 2.16409 4.72555 2.88029 -1.83775 158
160 3 13.0572 25.0351 0.950594 -5.01595 4.69721 3.37524 160
105 2 12.869 25.1646 7.1839 -6.07258 -2.34174 -3.08812 105
106 3 12.5564 24.7567 5.98358 -1.68728 -0.624469 -2.37121 106
12 1 12.7157 27.0429 4.5759 3.84392 -0.735761 1.13965 12
157 2 13.2594 25.6412 2.07793 4.23214 1.64488 -0.71855 157
159 3 13.2948 24.9786 3.14063 1.20034 2.12572 -3.20038 159
85 2 4.45628 29.6981 9.85085 4.03025 2.7578 -2.46437 85
87 3 5.44301 29.7367 8.99884 -9.31793 4.09402 2.08877 87
88 3 3.94665 28.5241 10.1177 4.25084 -2.80005 -3.08397 88
5 1 11.3583 27.5231 9.30782 -5.02048 -5.14937 -3.33899 5
139 3 11.55 29.1773 7.71747 -1.04876 6.46231 -2.94678 139
107 3 12.5372 26.365 7.54572 3.29357 9.58325 3.49086 107
108 3 13.5295 24.4268 8.06136 0.416572 -5.12632 4.74768 108
144 3 28.7046 14.7261 20.8247 6.41694 0.396186 6.93203 144
10 1 28.1434 12.909 22.0663 2.07827 -1.6336 3.35899 10
141 2 29.6179 15.6711 20.994 -3.8512 -2.19169 -0.184227 141
ITEM: TIMESTEP
100
ITEM: NUMBER OF ATOMS
180
ITEM: BOX BOUNDS pp pp pp
-2.9849823217130805e+01 2.9849823217130805e+01
-2.9849823217130805e+01 2.9849823217130805e+01
-2.9849823217130805e+01 2.9849823217130805e+01
ITEM: ATOMS id type x y z vx vy vz id
52 3 -20.219 -0.179837 -19.7444 -2.4736 -10.0019 2.10711 52
32 1 -23.654 -0.135309 -18.0293 1.26647 -1.69452 0.767852 32
112 3 -26.0704 -1.03888 -21.4798 -1.22255 -3.3081 -7.14032 112
121 2 -14.4489 -24.8568 -2.62354 -1.96018 3.73464 -5.18958 121
122 3 -13.295 -24.9784 -2.03892 4.68499 0.510074 0.603299 122
123 3 -14.7442 -23.7883 -3.22604 -1.19516 -1.70731 0.328305 123
124 3 -15.2392 -25.9066 -2.63415 -0.234148 6.46161 4.80198 124
69 2 -10.9955 -22.7335 -1.41609 7.23557 5.64431 4.00154 69
70 3 -10.8719 -23.5102 -0.449254 5.24753 -3.27791 4.84638 70
71 3 -10.3549 -22.9064 -2.54164 -0.778906 5.35123 -0.0275968 71
72 3 -11.9123 -21.858 -1.40209 1.26852 -3.23635 1.07405 72
28 1 -8.6105 -21.7397 -3.59737 1.64022 1.68738 2.19224 28
18 1 -12.6844 -24.7429 0.195811 -1.16452 2.08808 -3.29482 18
35 1 -4.39412 -24.0483 14.3922 3.86895 0.872002 1.13645 35
165 2 -3.48649 -27.4679 14.6878 -10.6023 1.03515 0.143441 165
166 3 -3.99849 -26.3295 14.391 -4.54265 2.98304 2.15452 166
168 3 -2.65048 -27.9831 13.8943 5.0481 1.97677 -4.6542 168
114 3 -8.23854 -21.4639 14.2178 2.42884 3.9091 -7.05555 114
113 2 -6.95976 -21.5341 14.1393 2.30036 -5.37519 -0.0647101 113
115 3 -6.20512 -20.5614 13.8125 -0.0752136 -4.09116 2.64542 115
116 3 -6.40082 -22.673 14.3806 0.420658 3.88069 2.04013 116
48 3 -26.3915 -12.6425 12.6057 -5.28482 3.83072 -0.787885 48
45 2 -26.6714 -11.82 13.6025 4.46963 7.45627 -3.62685 45
47 3 -27.8905 -11.708 14.0404 6.33721 0.186333 2.04952 47
46 3 -25.7092 -11.1802 14.1564 -2.36743 0.63516 0.988212 46
67 3 -22.8627 -26.0192 21.4554 -2.66517 1.61998 2.54099 67
99 3 -19.7549 -28.8176 20.5422 -3.87664 -5.9454 2.1472 99
80 3 -20.653 -27.503 18.2391 -1.48234 -8.10525 1.3662 80
97 2 -19.3297 -28.0737 21.5429 -7.1169 1.7985 -2.59461 97
98 3 -20.1501 -27.2192 21.9876 0.0522725 -1.16535 -2.41239 98
22 1 -18.6617 -24.3579 20.3052 -2.96338 -1.93368 -5.65966 22
26 1 -22.1112 -27.8348 20.3678 -2.24659 2.90493 3.02282 26
77 2 -21.2896 -26.5064 17.7481 -1.42622 6.45511 3.58808 77
29 1 -19.753 -29.6584 18.1561 1.16074 -0.411058 -1.07282 29
78 3 -20.9068 -25.8947 16.6517 -2.68729 2.72598 0.467238 78
79 3 -22.2358 -26.1246 18.4595 6.16447 -0.900945 -0.695604 79
100 3 -18.1607 -28.2202 22.037 1.17557 -2.43211 1.15561 100
36 1 -5.73973 -29.4315 16.2773 -0.381589 -1.19426 0.0312624 36
176 3 -23.5733 -29.4774 25.1689 -1.23119 0.994779 1.31091 176
167 3 -3.92016 -28.1055 15.7091 -3.01519 4.16396 5.13038 167
96 3 -21.1224 -27.9541 24.622 -1.51491 0.214175 -4.37252 96
65 2 -22.9848 -25.4031 22.601 4.35602 -1.76675 2.42187 65
17 1 -22.134 -28.5655 29.0662 2.88104 0.975459 -0.372057 17
81 2 -23.8651 -23.8493 27.4637 5.46841 4.69386 3.37971 81
66 3 -22.7803 -24.1288 22.741 0.989929 6.11747 -3.17791 66
82 3 -23.8819 -24.8892 26.7019 3.13552 0.866797 -4.49051 82
68 3 -23.3506 -26.0475 23.5865 2.77204 4.03435 1.36226 68
84 3 -23.4771 -24.0083 28.7377 6.47516 2.63734 2.95244 84
117 2 -20.0029 -26.9277 27.3588 -1.14087 -5.27233 1.96552 117
118 3 -21.3122 -26.8165 27.4447 6.01912 3.29607 -2.28301 118
119 3 -19.3822 -27.8843 27.936 1.85379 1.35211 -2.07946 119
120 3 -19.4212 -26.1113 26.6349 8.24796 3.94914 5.96897 120
75 3 -19.2151 -24.1204 22.6684 0.750675 3.61127 4.04545 75
173 2 -23.9133 -29.6092 26.4074 -4.63844 -7.15591 0.339101 173
13 1 -22.9268 -26.8369 25.7068 1.38702 -0.990521 -0.836051 13
93 2 -20.1883 -28.8403 24.6556 -2.42086 3.11968 -2.17507 93
94 3 -18.9641 -28.3639 24.659 -3.04088 0.532636 3.72724 94
15 1 -19.4668 -26.1857 24.133 3.96405 0.0440893 -1.8206 15
175 3 -23.5971 -28.6745 27.2833 4.14964 3.00168 -2.65906 175
128 3 -17.0243 -26.1713 24.1761 3.01971 -3.0877 0.849644 128
34 1 -16.7821 -28.8223 23.9316 -1.89807 -2.07609 0.319353 34
125 2 -16.3813 -25.1125 24.4991 -6.583 1.09358 -1.01104 125
126 3 -15.3624 -24.6957 23.8276 -5.57189 1.26964 -3.06854 126
127 3 -16.6763 -24.6783 25.6734 -0.688582 -4.52243 3.32278 127
19 1 -24.4127 -21.0274 25.4564 1.50831 4.36885 1.84138 19
83 3 -24.2914 -22.7112 27.0833 -10.6986 -2.87307 -2.51482 83
73 2 -19.1214 -23.335 23.6364 -0.864728 2.15285 4.90556 73
9 1 -18.2958 -23.9165 27.1538 1.46881 0.29733 -0.762856 9
74 3 -19.2039 -23.7487 24.8025 3.21493 3.02319 9.09297 74
76 3 -19.0814 -22.0604 23.321 -4.75829 -1.86345 0.776695 76
24 1 -28.3541 2.0507 -22.4185 0.340984 -4.41323 3.23912 24
89 2 -27.9795 4.78938 -23.2079 1.24607 -1.44192 0.0808092 89
90 3 -27.4844 5.77075 -23.9333 2.32006 -0.5558 -2.38319 90
91 3 -29.0589 4.16384 -23.5722 0.533544 -2.68283 2.00386 91
33 1 -20.38 1.5806 -23.6075 3.98537 2.2287 3.13568 33
57 2 -22.9219 4.13035 -23.912 -5.37354 2.16799 9.11997 57
58 3 -22.176 3.14787 -23.3489 8.65633 2.41964 -1.0397 58
59 3 -23.0952 5.27861 -23.2823 -5.48051 -2.70202 2.5221 59
60 3 -23.533 3.96745 -25.0075 0.676755 -2.32689 -0.544072 60
132 3 -24.4431 10.7632 -24.3246 1.05757 3.70659 -2.60917 132
129 2 -24.7685 11.6768 -25.181 1.21421 -2.28606 0.646704 129
2 1 -25.1189 9.51775 -22.4577 1.42616 3.91966 1.70005 2
131 3 -24.1237 11.8795 -26.2972 0.413541 -3.66005 1.79158 131
153 2 -26.8103 8.64364 -27.6558 2.22776 -10.8821 3.89602 153
154 3 -27.9982 8.54372 -28.1869 -2.37516 3.8863 -2.73962 154
11 1 -24.3638 6.77487 -27.2517 -0.106738 -6.25544 -1.69047 11
155 3 -25.8149 8.24641 -28.3574 -0.034847 -4.06032 -2.08966 155
156 3 -26.5959 9.09466 -26.4944 -5.75599 -2.78863 1.20899 156
130 3 -25.7587 12.4723 -24.935 1.24777 -2.85883 5.47065 130
164 3 -29.2929 5.45041 -18.3564 -1.99834 0.560601 -0.750562 164
133 2 -26.7799 1.09754 -17.1474 -10.7476 0.98595 8.56721 133
134 3 -27.0196 1.83002 -18.1806 -0.847039 -3.74714 -0.273377 134
135 3 -27.3337 1.27568 -16.0288 -3.91461 2.64641 -4.31295 135
136 3 -25.9441 0.114521 -17.3463 5.17108 -0.129679 2.0333 136
170 3 -23.9141 3.72957 -17.7933 -5.79731 -0.667216 4.9404 170
27 1 -27.7286 5.73822 -20.1439 -2.35205 3.61109 1.09305 27
92 3 -27.4059 4.46096 -22.1121 -0.527818 -4.64075 8.46699 92
109 2 -25.5576 0.142882 -21.5627 1.41992 6.22405 2.71716 109
110 3 -24.3415 0.29205 -21.9296 2.41025 0.785839 -6.06913 110
111 3 -26.3454 1.22356 -21.4703 -3.51591 4.46003 2.23581 111
20 1 -23.2346 2.18103 -21.1639 2.28399 -0.590683 3.09766 20
49 2 -21.1701 0.532119 -20.2277 4.07413 -2.72206 -5.45885 49
50 3 -22.2823 0.637518 -19.5911 0.910153 0.0424166 6.19715 50
51 3 -20.9838 1.18032 -21.324 1.64305 3.6746 0.685478 51
169 2 -23.0912 4.35923 -17.0292 -5.73992 1.06202 -0.989169 169
171 3 -22.2738 5.11896 -17.5882 7.69334 2.90637 6.05161 171
172 3 -23.1305 4.31181 -15.7174 5.03141 2.43574 -0.824735 172
101 2 -26.9982 10.1497 -19.734 0.358111 2.84326 7.20044 101
102 3 -26.4418 10.0793 -18.538 -1.3794 6.39986 3.51337 102
103 3 -27.9924 10.9601 -19.9457 7.74264 1.3117 -1.37237 103
104 3 -26.5521 9.33093 -20.6236 2.60904 -2.3347 -0.299101 104
177 2 -25.3976 3.44066 -11.7221 7.05223 3.56546 -9.40789 177
178 3 -24.3568 2.97117 -12.3331 -3.68103 2.52867 9.15444 178
179 3 -25.7499 2.99003 -10.547 -1.43823 -8.2676 -4.38775 179
180 3 -26.1435 4.28277 -12.3746 -8.63713 -7.33732 1.06363 180
8 1 -24.4991 4.96441 -13.8436 -2.60073 -0.0587817 1.92519 8
41 2 -19.7663 7.56588 4.48628 -5.18503 7.03572 -5.8973 41
42 3 -18.4564 7.75127 4.56709 -1.45206 -2.92419 -1.35262 42
43 3 -20.5824 8.33793 5.12305 2.07683 0.551544 -4.68149 43
44 3 -20.2181 6.53023 3.85596 -2.62142 1.13766 -1.16327 44
142 3 -29.5186 15.9822 21.914 -2.99656 -5.23133 -2.24886 142
143 3 -29.4881 16.1773 19.7046 2.45534 5.28667 -6.54898 143
152 3 -22.0041 29.7682 18.7993 2.09755 1.19809 6.07586 152
151 3 -22.9826 27.7651 19.3277 -2.78384 0.811576 -3.73442 151
149 2 -22.5521 28.9357 19.6655 -3.28247 -0.144667 -5.41828 149
150 3 -22.7852 29.3705 20.8403 4.11831 3.25839 -0.739346 150
174 3 -24.388 28.9888 26.8778 5.62276 -3.01218 -9.61557 174
3 1 -22.4326 28.9402 23.3079 1.84857 4.86971 3.60763 3
95 3 -20.425 29.6205 24.5715 -4.05006 -2.85118 -9.83317 95
1 1 5.22956 -26.4477 6.70178 6.22793 -0.229318 -3.98985 1
53 2 5.23946 -27.7117 1.62048 9.07831 4.78601 -1.18106 53
54 3 4.36108 -28.0472 0.736786 0.333638 1.793 4.64026 54
55 3 4.84792 -27.6775 2.85864 2.91352 -2.25273 -6.15945 55
21 1 8.20173 -29.0243 1.37417 2.27736 2.81941 1.32303 21
56 3 6.45426 -27.4164 1.29447 2.68529 2.78625 -4.91226 56
138 3 12.9097 -28.7809 7.08956 -1.10508 2.26037 2.55018 138
87 3 5.47305 -29.6754 8.90777 -0.24487 0.837144 1.23329 87
145 2 2.80582 -25.5044 8.71239 -0.175444 7.79458 1.90712 145
146 3 3.0411 -26.241 7.66819 -3.57566 7.86232 -4.45206 146
147 3 2.73751 -26.0207 9.86068 -1.35581 -0.988942 5.22241 147
148 3 2.53807 -24.2519 8.58349 -6.13196 -0.125935 9.39021 148
6 1 2.01588 -27.9046 10.8771 -1.89769 -0.157004 2.98295 6
86 3 4.07336 -28.8184 10.3157 4.40902 1.99556 -7.89652 86
140 3 11.9259 -28.6279 9.06714 1.10618 -8.93442 -1.72681 140
137 2 11.9737 -29.1427 7.89885 2.97213 1.04741 10.3425 137
14 1 12.8363 -26.9624 10.3516 -0.127537 -3.04373 4.53183 14
31 1 29.5177 5.50629 -24.9866 -1.7147 -3.66337 3.37647 31
161 2 29.1964 5.81499 -17.9677 -4.28265 -4.11947 4.16769 161
163 3 28.2307 5.56888 -18.8797 6.25869 -3.24393 -3.81429 163
162 3 28.9357 6.35193 -16.8452 -2.41539 -0.603739 2.40789 162
30 1 29.4048 11.5452 -20.5558 0.380828 1.18768 -1.28894 30
16 1 29.7907 2.13673 -15.1548 -0.0270613 6.68267 2.7068 16
4 1 22.0534 26.9618 -15.776 -0.641583 -0.7231 5.22156 4
37 2 27.138 2.47017 -10.7891 1.92694 0.602463 4.93918 37
38 3 26.4162 1.70578 -11.531 1.62075 -3.08397 0.929451 38
39 3 27.2039 3.71251 -11.0277 0.542609 2.90242 6.2529 39
40 3 27.9368 1.98489 -9.9112 -4.43904 -0.972599 -0.544423 40
64 3 23.4884 26.6426 -11.9956 -1.15609 0.358209 4.66429 64
62 3 23.2565 27.8138 -13.8725 -0.815931 3.34819 -4.62984 62
61 2 23.86 27.6316 -12.7663 -0.316276 0.698161 1.94715 61
7 1 24.8691 25.5806 -10.1256 -0.697137 -0.551344 0.820471 7
63 3 24.8237 28.4257 -12.4213 -3.59315 2.58585 0.31765 63
23 1 29.7816 2.35792 -8.69095 -2.72733 -1.16473 -1.96093 23
25 1 13.3293 23.0928 4.42498 -0.868357 0.370329 -2.6555 25
158 3 13.6308 26.9285 2.05503 0.195649 -1.92219 -7.35132 158
160 3 12.991 25.0817 0.849333 -1.80683 -1.98512 -5.48718 160
105 2 12.8468 25.3467 6.99717 -6.36526 2.37581 3.0499 105
106 3 12.6523 25.0841 5.73894 -0.387489 1.17896 2.95962 106
12 1 12.8489 27.0586 4.46034 0.409632 -0.739101 -1.19321 12
157 2 13.306 25.6461 1.95322 -5.40505 -0.192559 -0.38737 157
159 3 13.3147 24.9638 3.01254 2.77338 2.02697 1.91231 159
85 2 4.6105 29.8438 9.80865 4.56678 -1.15188 -3.63968 85
88 3 4.31819 28.6823 10.3226 -0.850005 4.80057 -2.95198 88
5 1 11.2961 27.5296 9.22272 -2.31641 -1.76999 -0.936986 5
139 3 11.2649 29.5618 7.61081 2.70692 2.70203 0.364158 139
107 3 12.7044 26.5928 7.4885 -4.61511 -3.99881 -2.23913 107
108 3 13.1356 24.3418 7.81276 1.89811 2.37546 -5.51151 108
144 3 29.144 14.5152 20.6801 0.545335 0.476121 4.33352 144
10 1 28.1941 12.6982 22.3026 1.97888 -1.50682 4.97619 10
141 2 -29.8103 15.5412 20.7621 4.65162 -3.41291 -10.0276 141
ITEM: TIMESTEP
200
ITEM: NUMBER OF ATOMS
180
ITEM: BOX BOUNDS pp pp pp
-2.9849823217130805e+01 2.9849823217130805e+01
-2.9849823217130805e+01 2.9849823217130805e+01
-2.9849823217130805e+01 2.9849823217130805e+01
ITEM: ATOMS id type x y z vx vy vz id
52 3 -19.9864 -0.110876 -19.7744 -1.77663 2.88734 4.73354 52
32 1 -23.7053 -0.130446 -17.8681 1.2503 1.16103 0.0568813 32
112 3 -26.0402 -1.01947 -21.5901 1.10037 -1.20663 4.46934 112
121 2 -14.4821 -24.7526 -2.6879 -1.20514 1.13052 -0.328713 121
122 3 -13.2965 -24.8637 -2.18823 3.06904 4.16772 1.47753 122
123 3 -14.8267 -23.6885 -3.302 -8.49436 4.74515 8.6123 123
124 3 -15.3705 -25.6298 -2.46681 2.25469 2.25958 -4.62615 124
69 2 -11.0122 -22.7083 -1.2647 3.42757 10.2867 -3.23782 69
70 3 -11.0006 -23.4527 -0.186418 -4.83123 -4.48575 5.24374 70
71 3 -10.2352 -22.9685 -2.27846 -4.39519 -4.61461 1.23907 71
72 3 -11.7559 -21.6654 -1.24566 5.51464 5.57713 -3.05305 72
28 1 -8.59535 -21.7463 -3.52971 1.2339 -1.63417 -2.74588 28
18 1 -12.8773 -24.7281 0.215697 0.116122 0.433336 -1.28277 18
35 1 -4.36027 -23.9295 14.5295 3.06594 1.09111 2.38565 35
165 2 -3.55766 -27.3214 14.7295 1.05899 5.18609 -1.07104 165
166 3 -4.34192 -26.3357 14.6204 -2.2189 0.140916 0.432322 166
168 3 -2.67278 -27.5727 13.7457 -2.40659 2.83238 -1.0707 168
114 3 -8.26729 -21.7304 14.1806 -2.55851 -4.16618 -4.137 114
113 2 -6.95806 -21.6478 14.2129 -1.61303 -4.94008 3.96004 113
115 3 -6.42981 -20.612 13.6817 -8.04551 0.925077 0.245931 115
116 3 -6.19962 -22.5171 14.7434 4.33893 -0.723342 6.61405 116
48 3 -26.5615 -12.3759 12.6793 -1.3437 5.21053 0.0703087 48
45 2 -26.546 -11.7247 13.7687 3.7128 -4.16583 -2.75158 45
47 3 -27.6869 -11.5319 14.2816 5.72294 -3.25101 -5.17177 47
46 3 -25.4833 -11.1745 14.2496 0.145554 5.85271 1.76743 46
95 3 -20.7213 -29.8339 24.8136 -4.50083 -4.24353 -0.254989 95
67 3 -23.0216 -25.8739 21.4534 -1.94179 2.716 -3.04787 67
99 3 -19.897 -28.8651 20.7898 1.36805 0.0908338 0.869322 99
80 3 -20.4118 -27.4999 18.2644 3.16015 4.35701 -2.54948 80
97 2 -19.3709 -27.9322 21.5144 1.46623 -3.79992 -0.285285 97
98 3 -20.1172 -27.0056 21.9698 2.80071 7.58025 -2.33187 98
22 1 -18.6598 -24.1262 20.3928 0.539812 4.09267 4.35101 22
29 1 -19.675 -29.6625 18.1512 -5.68593 5.21321 1.36256 29
26 1 -21.9571 -27.6623 20.2492 -0.111499 -0.7712 0.388759 26
77 2 -21.2068 -26.5569 17.7902 3.81638 1.81758 0.1394 77
78 3 -20.9924 -26.0212 16.6169 5.25325 -4.68678 0.889399 78
79 3 -22.2049 -26.2746 18.4817 -6.23499 6.18318 0.579497 79
100 3 -18.0748 -27.9506 21.8215 3.30534 -0.909951 -4.00927 100
36 1 -6.04735 -29.3161 16.0954 -1.71906 -2.23366 -2.57118 36
176 3 -23.588 -29.2787 25.11 0.248183 2.25331 3.56773 176
167 3 -3.73223 -28.1847 15.6991 5.26375 -0.662354 -0.317523 167
96 3 -21.0567 -27.6045 24.6997 -0.548507 -0.0506156 3.22695 96
65 2 -23.0862 -25.1639 22.5032 6.81469 -0.644217 -2.73382 65
17 1 -22.0425 -28.4573 28.8524 2.38441 -0.0200716 -1.72749 17
81 2 -23.7644 -23.6726 27.5785 5.92266 1.00154 2.13521 81
66 3 -22.5398 -23.9789 22.5403 -5.87768 0.564202 -3.54982 66
82 3 -23.9084 -24.6833 26.7319 -4.54893 3.62547 -1.1439 82
68 3 -23.564 -25.6521 23.5949 -7.94456 -2.06308 -0.881937 68
84 3 -22.9978 -23.7887 28.609 -6.16602 -3.01449 -3.5243 84
117 2 -19.9254 -26.9356 27.258 -4.49005 3.81128 0.247423 117
118 3 -21.1906 -26.7521 27.4106 -1.38223 -6.99592 6.98716 118
119 3 -19.2041 -27.8024 27.9228 0.610022 3.80325 1.88639 119
120 3 -19.3142 -26.1443 26.4092 2.17349 4.48523 -5.73523 120
75 3 -19.0358 -23.9194 22.7025 0.43356 -6.3454 -0.311643 75
173 2 -23.9168 -29.5514 26.3422 -1.76193 5.09614 0.396597 173
13 1 -22.9632 -26.6158 25.6972 -1.20258 1.31086 -2.28757 13
93 2 -20.2559 -28.6098 24.7246 0.364985 9.15705 -2.20878 93
94 3 -19.0046 -28.4129 24.6668 -5.78844 7.3942 -9.2034 94
15 1 -19.41 -26.0238 24.0649 -0.749796 0.902961 1.93623 15
175 3 -23.6876 -28.6086 27.1915 0.953002 5.74436 -4.60947 175
128 3 -17.1195 -26.2447 23.8281 -0.945799 -5.67814 5.63644 128
34 1 -16.9632 -28.8215 23.6782 -1.12527 -2.52771 -2.10864 34
125 2 -16.4804 -25.2796 24.3122 -8.98329 2.63297 0.904246 125
126 3 -15.6756 -24.6288 23.5204 4.78058 -0.348079 3.27863 126
127 3 -16.5304 -25.0154 25.6042 5.41816 7.4014 0.368953 127
152 3 -22.1007 -29.8303 18.7705 -0.498543 -1.20569 3.72935 152
19 1 -24.6528 -20.8805 25.5353 -1.84467 -0.871526 -1.19692 19
83 3 -24.2926 -22.5453 27.2363 5.5416 1.55579 -2.19451 83
73 2 -18.9355 -23.1854 23.7592 11.6258 3.37343 0.415652 73
9 1 -18.2916 -23.855 27.056 -3.9076 1.54007 -6.96517 9
74 3 -19.0808 -23.7517 24.9336 1.96866 -7.61313 5.4336 74
76 3 -18.7719 -21.9306 23.6477 3.34763 -0.453429 7.21482 76
24 1 -28.5601 1.90757 -22.4352 -0.10965 0.748104 -1.68463 24
89 2 -27.8767 4.6535 -22.9779 5.47566 6.78234 -2.95532 89
90 3 -27.4866 5.79454 -23.4493 -3.27605 3.27277 5.53465 90
91 3 -28.8606 3.97127 -23.5719 3.72141 9.44215 -4.18037 91
33 1 -20.3708 1.77392 -23.461 3.11772 1.63229 2.76429 33
57 2 -22.9767 4.15025 -23.5999 1.49769 1.59725 -0.0523195 57
58 3 -22.217 3.42075 -22.8216 -0.891456 6.66042 -6.65349 58
59 3 -23.5292 5.26949 -23.2708 -3.11645 -4.77526 2.34627 59
60 3 -23.248 3.69274 -24.753 -1.31773 -0.0842511 4.88756 60
132 3 -24.3447 10.7297 -24.2172 2.73613 2.58481 -2.27493 132
129 2 -24.6954 11.6267 -25.0765 -0.368651 3.53363 -1.67818 129
2 1 -24.8004 9.58413 -22.1916 -2.25421 2.0377 4.6064 2
131 3 -24.2059 11.5843 -26.2439 5.45101 -7.05019 2.78942 131
153 2 -26.9717 8.47451 -27.6369 -1.85191 -2.68852 -1.78988 153
154 3 -28.0959 8.56003 -28.2496 -3.28004 3.82121 2.75527 154
11 1 -24.4496 6.38011 -27.1842 -2.08978 -3.44397 -1.52161 11
155 3 -25.9724 7.89272 -28.2298 1.73306 2.92586 2.29744 155
156 3 -26.8874 8.88286 -26.3887 -9.66253 -2.20156 4.86447 156
130 3 -25.502 12.5715 -24.7252 7.69256 3.05378 3.62128 130
164 3 -29.2674 5.65567 -18.2602 -3.46021 2.59835 2.47989 164
133 2 -26.6923 1.19528 -17.0754 3.68657 -7.69987 -4.53263 133
134 3 -26.7264 1.9639 -18.0765 3.30447 4.36469 5.6333 134
135 3 -27.5301 1.33443 -16.1323 -1.80559 5.30221 3.7154 135
136 3 -25.7799 0.209921 -17.0937 -0.179856 0.388928 -0.519408 136
170 3 -24.0584 3.83189 -17.7219 -3.86417 2.07965 -3.04106 170
27 1 -27.7259 5.77648 -20.0344 -0.0851703 1.47809 2.06954 27
92 3 -27.422 4.19445 -21.8493 -3.74968 2.64973 -0.223861 92
109 2 -25.6658 0.238913 -21.4948 0.997236 1.09816 9.77062 109
110 3 -24.4653 0.572101 -21.9638 -1.46759 3.40046 -1.0541 110
111 3 -26.4624 1.11533 -21.0089 3.0014 -5.68066 -5.02962 111
20 1 -23.0723 2.13116 -21.1793 -6.06033 -1.69867 4.57137 20
49 2 -21.0722 0.369735 -20.2453 2.12394 -9.34954 0.878935 49
50 3 -22.1038 0.556867 -19.4475 6.93908 -0.760217 -0.54791 50
51 3 -21.1759 0.871989 -21.4412 -4.8658 1.33043 -0.429867 51
169 2 -23.1439 4.41609 -17.0294 -1.27972 4.04829 2.09253 169
171 3 -22.1145 5.01449 -17.5789 7.7384 2.18706 0.301616 171
172 3 -23.143 4.41011 -15.735 -3.71188 -0.483398 -4.87164 172
101 2 -27.0131 10.1968 -19.8097 4.39524 3.64015 7.50937 101
102 3 -26.3379 10.0705 -18.7631 -2.26016 -4.44916 -7.08693 102
103 3 -28.0272 10.9704 -19.8221 2.42438 0.967165 5.47285 103
104 3 -26.7043 9.54266 -20.9054 -2.92101 4.64834 -1.95279 104
177 2 -25.5938 3.17694 -11.8488 -3.08641 5.26736 5.17807 177
178 3 -24.5477 3.04224 -12.454 1.33523 -6.95424 1.27735 178
179 3 -25.7516 2.58881 -10.6739 2.01255 1.42771 -5.46238 179
180 3 -26.4645 4.01998 -12.2543 2.08893 -0.0394921 -1.64059 180
23 1 29.8495 2.40889 -8.69161 -0.25959 -1.76072 -1.61599 23
8 1 -24.7199 4.90927 -13.9418 -4.46155 0.194099 -1.2123 8
41 2 -19.6411 7.46064 4.58647 8.27512 -4.17815 -3.16006 41
42 3 -18.3761 7.77563 4.63219 0.420819 -5.68905 2.12039 42
43 3 -20.4284 8.11869 5.32778 0.911094 -4.59023 1.53376 43
44 3 -20.0704 6.56123 3.75981 3.75625 -3.80152 1.47315 44
143 3 -29.6882 16.0014 19.5109 1.60004 -5.49131 -2.02787 143
151 3 -23.2769 28.0138 19.3358 -3.12526 0.907827 -1.7171 151
149 2 -22.6298 29.1273 19.6222 3.69607 -1.7697 -0.765913 149